160
Step=1
Si  0.82550300  16.90273300  8.02672800
Si  3.57859300  15.40405400  7.91524300
Si  3.61525300  12.32827200  7.79142800
O  -0.39399300  16.38822500  8.97049800
O   2.14700000  16.01900000  8.38100000
O   2.16833100  11.70013100  8.17359000
O   3.71000000  13.84500000  8.38400000
O   0.51413300  16.82449500  6.43064600
O   3.78242900  15.56381400  6.30078700
O   3.83835800  12.26151700  6.17639000
Si  0.79040500  20.03770000  8.11798300
Si  3.61646500  24.59144300  7.78977800
Si  3.57392300  21.51644700  7.91298100
O  -0.36656800  20.60916400  9.10618700
O   2.16894300  25.21986200  8.16918500
O   2.14700000  20.90100000  8.38100000
O   1.04500000  18.46000000  8.38400000
O   3.71000000  23.07500000  8.38400000
O   0.28796900  20.17942500  6.58029600
O   3.84322900  24.65740300  6.17523000
O   3.76807200  21.35886600  6.29712000
Si  6.22270300  10.74479000  7.89204900
Si  6.22770100  16.89731300  8.01236700
Si  8.87567100  15.40393500  8.07146700
Si  8.88270000  12.35331700  7.92738900
O   4.81100000  11.40400000  8.38100000
O   4.84026700  16.22821100  8.54553500
O   7.53252400  16.13445000  8.63606400
O   7.47600000  11.67100000  8.38100000
O   6.39553700  9.26420200  8.53484800
O   8.97115900  13.85656800  8.57903200
O   6.19358000  10.56500300  6.27778400
O   6.34068200  16.74021400  6.38952300
O   8.84554300  15.39082800  6.42808100
O   8.99617700  12.49448500  6.29922600
Si  6.21638800  20.01550500  8.00088200
Si  6.22275700  26.17797500  7.89639700
Si  8.88164500  24.57359600  7.91870100
Si  8.85075300  21.52826000  8.03684200
O   4.83212200  20.68555700  8.53863800
O   4.81100000  25.51600000  8.38100000
O   7.47600000  25.24900000  8.38100000
O   7.51705000  20.79206800  8.61378700
O   6.27927000  18.45840700  8.45642100
O   8.96178700  23.06765900  8.56086500
O   6.31668600  20.15996000  6.37582700
O   6.19404500  26.36676300  6.28308200
O   8.99771800  24.44641200  6.28994600
O   8.79833300  21.55854500  6.39502400
O   6.39500700  27.65560300  8.54611700
Si  11.54077800  10.90435200  7.70392400
Si  11.54475400  16.89739000  7.91695200
Si  14.20353600  15.39713100  7.87470900
Si  14.23582000  12.29374200  7.89821800
O   10.14000000  11.40400000  8.38100000
O   10.19474400  16.23030500  8.55061100
O   12.85059900  16.10098600  8.48098100
O   12.80500000  11.67100000  8.38100000
O   11.70002200  9.30021600  7.89283400
O   14.36800000  13.84500000  8.38400000
O   11.52647400  11.21103000  6.10107400
O   11.53153700  16.72019100  6.29171000
O   14.13836300  15.44005700  6.24791000
O   14.36592100  12.11520300  6.28747400
Si  11.52107500  20.04305300  7.85872200
Si  11.54104400  26.02008600  7.70790700
Si  14.23698900  24.62924600  7.90141000
Si  14.21263200  21.53527600  7.85646400
O   10.17156500  20.69916000  8.49678400
O   10.14000000  25.51600000  8.38100000
O   12.80500000  25.24900000  8.38100000
O   12.80500000  20.90100000  8.38100000
O   11.64364400  18.47899300  8.30700800
O   14.36800000  23.07500000  8.38400000
O   11.49649700  20.16818400  6.23103200
O   11.52980000  25.72254300  6.10357100
O   14.36785300  24.80206500  6.29032800
O   14.23459300  21.46715800  6.21933400
O   11.70097800  27.62284100  7.90688300
Si  16.94924900  16.87134200  8.04468200
O   15.47125000  11.46932700  8.55584000
O   15.46900000  16.28600000  8.38100000
O   18.07446200  16.21289800  9.01232900
O   17.32777000  16.54921100  6.49331000
Si  16.79747600  19.93081100  7.73267200
O   15.46900000  20.63400000  8.38100000
O   15.47112700  25.45237000  8.56102300
O   18.11634100  20.83520200  8.03021800
O   17.03200000  18.46000000  8.38400000
O   16.60876900  19.83038400  6.12139200
H  -0.50423300  15.43969800  9.08178100
H   1.69998200  12.07828000  8.92297400
H   0.31527800  15.96291600  6.05244500
H   3.06011700  15.36094400  5.69970900
H   3.18226100  12.64156700  5.58570400
H  -0.12746500  20.79216800  10.01912000
H   1.69595600  24.83705400  8.91328400
H   0.06870200  21.06154600  6.26602500
H   3.18504400  24.28262500  5.58349200
H   3.04237600  21.56618400  5.70151800
H   6.86261700  9.19605300  9.37200300
H   5.50488200  11.07966300  5.83436100
H   5.53947200  16.40054300  5.95952200
H   8.05967300  15.81862300  6.04527900
H   8.86604800  13.39292800  5.95934400
H   5.51369500  20.50210000  5.95097600
H   5.50812300  25.85154700  5.83617100
H   8.84698100  23.55488100  5.94014900
H   8.01534700  21.12144600  6.01740500
H   6.85640200  27.71938900  9.38677000
H   12.07465600  8.98126900  8.71867800
H   10.73932800  11.69412400  5.80207300
H   10.72188000  16.34829400  5.91526700
H   13.31446500  15.80088700  5.88887800
H   13.52713000  11.98281400  5.82547800
H   10.69115600  20.54020200  5.84772900
H   10.74283600  25.24201400  5.79986200
H   13.53075200  24.94716800  5.82892500
H   13.39832300  21.21040200  5.80701700
H   12.07260100  27.93684500  8.73599200
H   15.82850300  11.79809400  9.38506500
H   18.14928400  15.25438700  9.00788300
H   16.62567000  16.64916100  5.84290700
H   15.82415900  25.12896100  9.39417300
H   18.51458400  20.76863300  8.90270000
H   15.82968300  20.30123600  5.78901700
P   12.27515000  13.63258100  10.87084000
O   8.67184800  13.39698200  12.94962900
O   6.67235100  11.21670600  12.03694100
O   5.60376400  13.53468300  11.26156800
O   11.14730500  13.12326300  11.90734200
O   6.03134700  16.30890900  11.85890200
O   13.47916700  12.71816700  10.89872300
O   12.66668800  15.14222300  11.22093600
O   11.64118700  13.74663800  9.49646800
N   8.14676100  15.52672700  11.94977900
N   7.65167600  17.73493000  11.18684400
N   9.38696200  18.98509900  10.28146100
C   7.57166100  12.03499900  11.32552200
C   7.00914300  13.46618200  11.18264000
C   8.89257900  12.26082100  12.11304900
C   7.65103100  14.22498000  12.37308400
C   10.09817700  12.52722000  11.19998500
C   9.48030700  15.69955900  11.75459000
C   7.22494500  16.53837500  11.67134900
C   9.90036700  16.87076700  11.25697000
C   8.94420200  17.86659200  10.94886800
H   7.75494800  11.56345600  10.35098000
H   7.32071700  13.91583700  10.22524200
H   9.08691300  11.41811700  12.79196200
H   6.90073200  14.38395600  13.15930100
H   9.82296600  13.23890500  10.40142600
H   10.47424100  11.61249400  10.71179000
H   5.76026500  11.53712300  11.85939500
H   5.38760700  14.48702300  11.36899200
H   10.15094100  14.88693600  11.97577700
H   10.93930600  17.03835400  11.03307000
H   10.22699200  18.91320700  9.70105600
H   8.71352800  19.59059900  9.81496200
H   12.78464200  15.54672300  10.33285900
160
Step=2
Si  0.82546900  16.90273600  8.02692100
Si  3.57813600  15.40337800  7.91360900
Si  3.61537700  12.32830600  7.79173500
O  -0.39526400  16.38886000  8.97024100
O   2.14700000  16.01900000  8.38100000
O   2.16836900  11.69998000  8.17425400
O   3.71000000  13.84500000  8.38400000
O   0.51358200  16.82425500  6.43077300
O   3.78035600  15.56156900  6.29846200
O   3.83894600  12.25957100  6.17661100
Si  0.79060100  20.03763600  8.11794100
Si  3.61618200  24.59157700  7.79034100
Si  3.57357100  21.51657300  7.91267900
O  -0.36643000  20.60919300  9.10631900
O   2.16876400  25.21994400  8.17098600
O   2.14700000  20.90100000  8.38100000
O   1.04500000  18.46000000  8.38400000
O   3.71000000  23.07500000  8.38400000
O   0.28770000  20.17968500  6.58027600
O   3.84169700  24.65879700  6.17553900
O   3.76802700  21.35872600  6.29684900
Si  6.22237200  10.74312800  7.89442700
Si  6.22776000  16.89630300  8.00587700
Si  8.87620500  15.40275800  8.06813100
Si  8.88434500  12.35359500  7.92629000
O   4.81100000  11.40400000  8.38100000
O   4.84059100  16.22771400  8.54005500
O   7.53186600  16.13254400  8.62798900
O   7.47600000  11.67100000  8.38100000
O   6.39541400  9.26497900  8.54311200
O   8.96604900  13.85671600  8.57858600
O   6.19234900  10.55818100  6.28069000
O   6.34043800  16.73808500  6.38279400
O   8.85078300  15.39265000  6.42393900
O   8.99728400  12.49500300  6.29768600
Si  6.21494000  20.01503900  8.00242700
Si  6.22261500  26.17769100  7.89608600
Si  8.88131400  24.57391700  7.91966200
Si  8.84954600  21.53079700  8.04343000
O   4.83088200  20.68502500  8.53909200
O   4.81100000  25.51600000  8.38100000
O   7.47600000  25.24900000  8.38100000
O   7.51446900  20.79343300  8.62136400
O   6.27785000  18.45756500  8.44988200
O   8.95997600  23.06945900  8.56478400
O   6.32037100  20.16827900  6.37879600
O   6.19400300  26.36607000  6.28256900
O   8.99827200  24.44335100  6.29122900
O   8.80559200  21.55470800  6.40205600
O   6.39510600  27.65562800  8.54539500
Si  11.54257300  10.90655500  7.70687200
Si  11.54406700  16.89882700  7.93980200
Si  14.20131200  15.39644300  7.88229100
Si  14.23261300  12.29469000  7.90422100
O   10.14000000  11.40400000  8.38100000
O   10.19132900  16.22989800  8.55400600
O   12.85296600  16.10448900  8.50491300
O   12.80500000  11.67100000  8.38100000
O   11.69921000  9.30062300  7.89753400
O   14.36800000  13.84500000  8.38400000
O   11.52570400  11.20628400  6.10097700
O   11.53563900  16.73825600  6.31367000
O   14.12666700  15.44701300  6.25516100
O   14.36513800  12.11669800  6.29184900
Si  11.52016600  20.04287300  7.88758200
Si  11.54093600  26.01977600  7.70770900
Si  14.23631100  24.62855700  7.89963300
Si  14.20939400  21.53301900  7.86387500
O   10.16767600  20.70458000  8.51856500
O   10.14000000  25.51600000  8.38100000
O   12.80500000  25.24900000  8.38100000
O   12.80536000  20.90022300  8.40317600
O   11.63993500  18.47992700  8.34645200
O   14.36800000  23.07500000  8.38400000
O   11.49565000  20.15042500  6.25946200
O   11.52911000  25.72230900  6.10328900
O   14.36571000  24.79930400  6.28806800
O   14.22239200  21.46039700  6.22676800
O   11.70103800  27.62266600  7.90659900
Si  16.94753100  16.87218800  8.04208300
O   15.47248000  11.46914900  8.55522000
O   15.46900000  16.28600000  8.38100000
O   18.07502800  16.21286500  9.00693600
O   17.32418600  16.55181200  6.48961600
Si  16.79507900  19.92940700  7.73025600
O   15.46900000  20.63400000  8.38100000
O   15.47163800  25.45213700  8.55682100
O   18.11486100  20.83474800  8.02153600
O   17.03200000  18.46000000  8.38400000
O   16.60008400  19.82666200  6.11971700
H  -0.50624500  15.44027600  9.08188900
H   1.69971800  12.07886900  8.92326800
H   0.31437900  15.96260600  6.05248200
H   3.05761800  15.35795000  5.69795500
H   3.18296700  12.63878300  5.58500900
H  -0.12745700  20.79241500  10.01943000
H   1.69587600  24.83657400  8.91509300
H   0.06830600  21.06192000  6.26585300
H   3.18299800  24.28467100  5.58365700
H   3.04255600  21.56592100  5.70065000
H   6.86240900  9.19920700  9.38097300
H   5.50291300  11.07166800  5.83619700
H   5.53869800  16.39762500  5.95376900
H   8.06519800  15.82134900  6.04088100
H   8.86511700  13.39358000  5.95888400
H   5.51901400  20.51321300  5.95280300
H   5.50805500  25.85076600  5.83541200
H   8.84765300  23.55111800  5.94272200
H   8.02577700  21.11498700  6.02043900
H   6.85683300  27.72005400  9.38602600
H   12.07251800  8.98335700  8.72417000
H   10.73727600  11.68637900  5.80191400
H   10.72599400  16.36834900  5.93363300
H   13.30422500  15.81050000  5.89914700
H   13.52599100  11.98238300  5.83182700
H   10.69108900  20.51803800  5.87017300
H   10.74194500  25.24185800  5.79948200
H   13.52850200  24.94422300  5.82664100
H   13.38498900  21.20344600  5.81779500
H   12.07316700  27.93710600  8.73551500
H   15.82302600  11.79612300  9.38722500
H   18.15019500  15.25421100  9.00150000
H   16.62109000  16.65143300  5.84003100
H   15.82622000  25.12960200  9.38987500
H   18.51627300  20.77025500  8.89291100
H   15.81947000  20.29737600  5.78968400
P   12.30515100  13.63388500  10.90592500
O   8.66040000  13.44184900  12.98374500
O   6.71603700  11.23199200  12.11367600
O   5.61932700  13.51429300  11.31402300
O   11.14862200  13.15990400  11.93308700
O   6.01397100  16.29412100  11.87291600
O   13.50876600  12.74590600  11.08009000
O   12.65763800  15.15605000  11.27508700
O   11.71784200  13.71392700  9.52162900
N   8.14414200  15.56079000  12.01765200
N   7.64148300  17.74504100  11.23259700
N   9.36706900  19.00245400  10.33900400
C   7.59153400  12.05625500  11.37829600
C   7.02266300  13.47719400  11.23129300
C   8.89726300  12.29801500  12.15228300
C   7.64522600  14.24919100  12.41841300
C   10.08811700  12.54837200  11.22792400
C   9.47526600  15.76524200  11.86550700
C   7.21340700  16.55407300  11.72330500
C   9.90272400  16.93677300  11.36793600
C   8.93510000  17.90074500  11.00798800
H   7.76859800  11.58649300  10.40067500
H   7.32874700  13.91299700  10.26826300
H   9.09544500  11.46371000  12.83310100
H   6.88963200  14.40259600  13.19371200
H   9.81867900  13.24231600  10.42605700
H   10.45707200  11.63561600  10.74276300
H   5.81132000  11.53826100  11.95085500
H   5.38972000  14.45504700  11.42556100
H   10.14490500  14.96424100  12.12819600
H   10.94833400  17.11709000  11.18153200
H   10.20477500  18.93022800  9.76343400
H   8.69791400  19.60018600  9.86684700
H   12.78204000  15.56112800  10.38917400
160
Step=3
Si  0.82571800  16.90284200  8.02654100
Si  3.57789400  15.40294600  7.91248900
Si  3.61505300  12.32818300  7.79272400
O  -0.39742000  16.38968900  8.96823000
O   2.14700000  16.01900000  8.38100000
O   2.16812200  11.69991000  8.17703700
O   3.71000000  13.84500000  8.38400000
O   0.51404900  16.82451000  6.43007500
O   3.77948000  15.56030800  6.29672600
O   3.83769900  12.25621700  6.17730000
Si  0.79088900  20.03753100  8.11793100
Si  3.61600900  24.59164200  7.79086700
Si  3.57314800  21.51690400  7.91235900
O  -0.36639900  20.60916200  9.10642600
O   2.16854400  25.21994400  8.17258700
O   2.14700000  20.90100000  8.38100000
O   1.04500000  18.46000000  8.38400000
O   3.71000000  23.07500000  8.38400000
O   0.28735100  20.17994400  6.58028700
O   3.84044100  24.66033300  6.17578700
O   3.76881500  21.35893400  6.29665900
Si  6.22202500  10.74197200  7.89582600
Si  6.22710600  16.89589000  8.00475700
Si  8.87547100  15.40349800  8.07425700
Si  8.88653300  12.35514700  7.92671400
O   4.81100000  11.40400000  8.38100000
O   4.83957900  16.22743500  8.53695300
O   7.52931500  16.13172400  8.62669300
O   7.47600000  11.67100000  8.38100000
O   6.39587200  9.26586100  8.54934300
O   8.95583200  13.85757600  8.58338400
O   6.19137000  10.55352400  6.28240400
O   6.34166500  16.73586400  6.38154600
O   8.85714100  15.39717000  6.42925900
O   9.00008300  12.49973200  6.29799100
Si  6.21266900  20.01447600  8.00479400
Si  6.22235600  26.17760900  7.89603100
Si  8.88090200  24.57430200  7.92117200
Si  8.84772700  21.53402700  8.05226900
O   4.82925000  20.68480800  8.53998900
O   4.81100000  25.51600000  8.38100000
O   7.47600000  25.24900000  8.38100000
O   7.51146400  20.79434100  8.63265300
O   6.27476700  18.45813600  8.44430000
O   8.95785600  23.07152800  8.57022900
O   6.32522500  20.17752600  6.38291700
O   6.19394200  26.36592600  6.28230400
O   8.99906700  24.43964900  6.29315000
O   8.81312600  21.55075700  6.41212000
O   6.39515200  27.65574600  8.54530400
Si  11.54511100  10.90999400  7.71121400
Si  11.54210100  16.90251400  7.97384400
Si  14.19697100  15.39640100  7.89402900
Si  14.22837600  12.29610700  7.91268700
O   10.14000000  11.40400000  8.38100000
O   10.18678900  16.23179700  8.56751700
O   12.85647600  16.11398900  8.54098000
O   12.80500000  11.67100000  8.38100000
O   11.69746500  9.30123300  7.90307100
O   14.36800000  13.84500000  8.38400000
O   11.52513000  11.20181400  6.10157000
O   11.53736000  16.75924500  6.34702300
O   14.10832800  15.45568200  6.26692100
O   14.36653100  12.11725600  6.29793200
Si  11.51946200  20.04455400  7.92136700
Si  11.54081700  26.01923000  7.70727900
Si  14.23553600  24.62766400  7.89753700
Si  14.20557600  21.53014100  7.87384800
O   10.16287600  20.71047200  8.54565500
O   10.14000000  25.51600000  8.38100000
O   12.80500000  25.24900000  8.38100000
O   12.80556100  20.89980900  8.43169000
O   11.63478800  18.48420500  8.39781700
O   14.36800000  23.07500000  8.38400000
O   11.49358800  20.13112600  6.29314100
O   11.52833800  25.72133900  6.10284300
O   14.36339200  24.79587300  6.28541400
O   14.20748400  21.45213300  6.23697800
O   11.70110700  27.62238500  7.90555800
Si  16.94473500  16.87345800  8.03784700
O   15.47320400  11.47062700  8.55947000
O   15.46900000  16.28600000  8.38100000
O   18.07618900  16.21234300  8.99766700
O   17.31776800  16.55641100  6.48342200
Si  16.79154700  19.92730100  7.72689400
O   15.46900000  20.63400000  8.38100000
O   15.47228800  25.45180600  8.55188000
O   18.11269000  20.83390600  8.00900600
O   17.03200000  18.46000000  8.38400000
O   16.58754100  19.82080000  6.11748500
H  -0.50955700  15.44117400  9.08001900
H   1.69975400  12.08012000  8.92567500
H   0.31455600  15.96304600  6.05134400
H   3.05694600  15.35612000  5.69607300
H   3.18144900  12.63404200  5.58497500
H  -0.12779100  20.79265700  10.01965300
H   1.69561900  24.83593400  8.91644500
H   0.06779100  21.06213700  6.26564600
H   3.18147200  24.28693900  5.58360700
H   3.04419100  21.56609000  5.69929600
H   6.86300200  9.20163600  9.38739900
H   5.50154900  11.06633600  5.83749500
H   5.54018200  16.39437000  5.95283600
H   8.07217800  15.82600900  6.04543500
H   8.86503300  13.39882600  5.96150800
H   5.52608500  20.52546200  5.95485100
H   5.50799000  25.85078100  5.83475400
H   8.84903200  23.54686200  5.94587100
H   8.03681900  21.10878200  6.02574300
H   6.85724600  27.72081700  9.38576700
H   12.06922200  8.98567600  8.73102500
H   10.73535500  11.67964400  5.80288400
H   10.72838000  16.39115800  5.96406000
H   13.28738800  15.82368600  5.91402000
H   13.52692700  11.97977600  5.83958100
H   10.68998900  20.49320700  5.89668300
H   10.74122000  25.24073700  5.79901700
H   13.52628300  24.94078800  5.82371300
H   13.36901400  21.19438000  5.83115000
H   12.07384700  27.93768500  8.73394400
H   15.81424100  11.79860800  9.39536700
H   18.15180500  15.25367800  8.99026000
H   16.61306700  16.65608400  5.83550600
H   15.82869400  25.13042400  9.38468700
H   18.51875400  20.77235600  8.87851900
H   15.80488900  20.29072200  5.79096600
P   12.29769100  13.65622700  10.89710800
O   8.64843600  13.47344600  13.02046100
O   6.75702400  11.23929000  12.19552100
O   5.62561500  13.48560800  11.36936100
O   11.14943200  13.19526000  11.95026000
O   6.00622100  16.26461400  11.90116400
O   13.48507500  12.77195400  11.11987100
O   12.64978700  15.17267200  11.33739400
O   11.66464500  13.78618500  9.55902300
N   8.14848700  15.57236900  12.07414700
N   7.63533600  17.73222100  11.27696300
N   9.34173800  19.00815900  10.39572200
C   7.60617800  12.07147900  11.43671400
C   7.02827100  13.48142100  11.28699900
C   8.90027700  12.32616800  12.19436700
C   7.64019700  14.25816000  12.46819000
C   10.06626800  12.57296600  11.25779800
C   9.47301400  15.79847100  11.93895200
C   7.20842600  16.54628600  11.76199200
C   9.90897000  16.97016400  11.43897300
C   8.92769300  17.91380800  11.05374400
H   7.77622500  11.61003700  10.45422600
H   7.33416500  13.90231000  10.32054600
H   9.11065300  11.49969000  12.87519500
H   6.87717000  14.42336200  13.22994800
H   9.79970600  13.24724900  10.44927900
H   10.42654700  11.66069800  10.77411400
H   5.85326200  11.53329300  12.04744600
H   5.37990000  14.41728900  11.48718800
H   10.13723600  14.99576700  12.22173400
H   10.95929200  17.15652100  11.27500300
H   10.17853300  18.94122000  9.83136400
H   8.67457900  19.60204000  9.92300400
H   12.79072100  15.59047600  10.46255600
160
Step=4
Si  0.82638500  16.90298400  8.02537500
Si  3.57815600  15.40313900  7.91278900
Si  3.61371900  12.32776800  7.79488900
O  -0.39891800  16.38966600  8.96465400
O   2.14700000  16.01900000  8.38100000
O   2.16745900  11.70006500  8.18359100
O   3.71000000  13.84500000  8.38400000
O   0.51611900  16.82546500  6.42841400
O   3.78054900  15.56078300  6.29694300
O   3.83201200  12.25283300  6.17884200
Si  0.79107100  20.03749900  8.11790800
Si  3.61559400  24.59175500  7.79152400
Si  3.57296500  21.51733000  7.91225700
O  -0.36656700  20.60921200  9.10627200
O   2.16818800  25.21985100  8.17457900
O   2.14700000  20.90100000  8.38100000
O   1.04500000  18.46000000  8.38400000
O   3.71000000  23.07500000  8.38400000
O   0.28720000  20.18003900  6.58026200
O   3.83871600  24.66162500  6.17621000
O   3.77116200  21.35906800  6.29691200
Si  6.22193700  10.74340100  7.89351700
Si  6.22692000  16.89609500  8.01163900
Si  8.87492100  15.40483500  8.09367100
Si  8.88838800  12.35934400  7.93238700
O   4.81100000  11.40400000  8.38100000
O   4.83765700  16.22815000  8.53886600
O   7.52566500  16.13171300  8.63681700
O   7.47600000  11.67100000  8.38100000
O   6.39678200  9.26654700  8.54528100
O   8.94354600  13.85834700  8.59944400
O   6.19166600  10.55789200  6.27965800
O   6.34608600  16.73372300  6.38859600
O   8.86724300  15.40285600  6.44812200
O   9.00194900  12.51201600  6.30434900
Si  6.21124100  20.01516600  8.00842200
Si  6.22223300  26.17731700  7.89583100
Si  8.88073000  24.57444400  7.92294500
Si  8.84753500  21.53587800  8.06505700
O   4.82793200  20.68553100  8.54175800
O   4.81100000  25.51600000  8.38100000
O   7.47600000  25.24900000  8.38100000
O   7.50893400  20.79527400  8.64581500
O   6.27195600  18.46011400  8.44340100
O   8.95599900  23.07390400  8.57765100
O   6.33144300  20.18526100  6.38789600
O   6.19413100  26.36489200  6.28191800
O   9.00012600  24.43462800  6.29545800
O   8.82248500  21.54371600  6.42617200
O   6.39532800  27.65582600  8.54442200
Si  11.54649500  10.91604700  7.71183500
Si  11.54163600  16.90399400  8.01802000
Si  14.19166500  15.39724500  7.90608200
Si  14.22691400  12.29613900  7.92277500
O   10.14000000  11.40400000  8.38100000
O   10.18178200  16.23411300  8.59353600
O   12.86373300  16.12207600  8.58081400
O   12.80500000  11.67100000  8.38100000
O   11.69501800  9.30445400  7.89641100
O   14.36800000  13.84500000  8.38400000
O   11.52507400  11.21114200  6.10157300
O   11.54042500  16.78082200  6.38960500
O   14.08414700  15.46701100  6.28060500
O   14.37658000  12.11102000  6.30741500
Si  11.51941100  20.04184600  7.96000400
Si  11.54068700  26.01876500  7.70693300
Si  14.23451400  24.62659600  7.89529400
Si  14.20076100  21.52680700  7.88503200
O   10.15992100  20.71525600  8.57626500
O   10.14000000  25.51600000  8.38100000
O   12.80500000  25.24900000  8.38100000
O   12.80821900  20.89483200  8.46445600
O   11.62880200  18.48563600  8.45761000
O   14.36800000  23.07500000  8.38400000
O   11.49214000  20.10965900  6.33168600
O   11.52754800  25.72036400  6.10256500
O   14.36026800  24.79189300  6.28266600
O   14.18737100  21.44177100  6.24875000
O   11.70109000  27.62212700  7.90447700
Si  16.94307300  16.87373100  8.03544000
O   15.47116100  11.47308600  8.57753200
O   15.46900000  16.28600000  8.38100000
O   18.07729600  16.21120000  8.99179100
O   17.31380500  16.55917600  6.47970800
Si  16.78736600  19.92470800  7.72230000
O   15.46900000  20.63400000  8.38100000
O   15.47279900  25.45155300  8.54604100
O   18.11023600  20.83269900  7.99219300
O   17.03200000  18.46000000  8.38400000
O   16.57195800  19.81234800  6.11464200
H  -0.51128100  15.44127100  9.07655400
H   1.70052300  12.08235600  8.93201000
H   0.31717400  15.96436300  6.04879400
H   3.05911900  15.35564000  5.69538500
H   3.17444000  12.62958100  5.58738000
H  -0.12836900  20.79313500  10.01943200
H   1.69525600  24.83476100  8.91777700
H   0.06791300  21.06207200  6.26527800
H   3.17952400  24.28876200  5.58407200
H   3.04812200  21.56642300  5.69782800
H   6.86468400  9.20058000  9.38245600
H   5.50193200  11.07123800  5.83585700
H   5.54600800  16.39131500  5.95856300
H   8.08314500  15.83024900  6.06165000
H   8.86416900  13.41193800  5.97194600
H   5.53481300  20.53579000  5.95724600
H   5.50802400  25.85009200  5.83438400
H   8.85147900  23.54109900  5.94998600
H   8.04814700  21.10120800  6.03628200
H   6.85804000  27.72183900  9.38436700
H   12.06707200  8.98623100  8.72364700
H   10.73582000  11.69207000  5.80588500
H   10.73245300  16.41549400  6.00259000
H   13.26288900  15.84325300  5.93505000
H   13.53851500  11.96817100  5.84704300
H   10.69027100  20.46828600  5.92892900
H   10.74084100  25.23912500  5.79899800
H   13.52323500  24.93723200  5.82113300
H   13.34723600  21.18111900  5.84825700
H   12.07462200  27.93821000  8.73209800
H   15.79481200  11.80174300  9.42100900
H   18.15263100  15.25262400  8.98344600
H   16.60824000  16.65880400  5.83285500
H   15.83128400  25.13144000  9.37833100
H   18.52267500  20.77439200  8.85883100
H   15.78659600  20.28052700  5.79266100
P   12.35973000  13.59263700  10.98416900
O   8.65769000  13.47066700  13.10682900
O   6.78258800  11.22953000  12.31377100
O   5.62193900  13.44699200  11.46730800
O   11.16966800  13.16962100  12.02234500
O   5.99200100  16.22592400  11.95765000
O   13.53523400  12.74318100  11.33419400
O   12.67035000  15.12812100  11.43363200
O   11.77721100  13.67622600  9.63250400
N   8.14359400  15.56697100  12.17413000
N   7.61076000  17.70760200  11.35461500
N   9.30209800  19.01022100  10.48103100
C   7.61496200  12.06591700  11.53843300
C   7.02630300  13.47203000  11.38888500
C   8.91479700  12.32408200  12.28214600
C   7.64028400  14.24570000  12.56918900
C   10.06497100  12.56832400  11.33440400
C   9.46274200  15.81618700  12.06151600
C   7.19298600  16.52481500  11.83708700
C   9.89609500  16.98892600  11.55804000
C   8.90213500  17.90951100  11.13546900
H   7.78122700  11.61737000  10.55156900
H   7.33149400  13.88256300  10.41772400
H   9.13612200  11.50187800  12.96514800
H   6.87280400  14.41963200  13.32720200
H   9.80228900  13.24046100  10.51848300
H   10.40068600  11.64847400  10.84387400
H   5.87004500  11.52123800  12.17660800
H   5.35709400  14.37443800  11.59630900
H   10.12733100  15.02100700  12.37078500
H   10.94820300  17.18786700  11.42427600
H   10.14460800  18.95227400  9.92542500
H   8.63369200  19.60288900  10.00803500
H   12.80644800  15.56091000  10.56907400
160
Step=5
Si  0.82715200  16.90306900  8.02417400
Si  3.57824100  15.40345200  7.91305600
Si  3.61153000  12.32701200  7.79824800
O  -0.39894700  16.38903500  8.96195700
O   2.14700000  16.01900000  8.38100000
O   2.16659100  11.70030200  8.19392900
O   3.71000000  13.84500000  8.38400000
O   0.51783700  16.82624400  6.42691400
O   3.78021000  15.55996300  6.29714800
O   3.82241200  12.24965500  6.18130000
Si  0.79095100  20.03762800  8.11856100
Si  3.61482600  24.59206300  7.79257400
Si  3.57207500  21.51845200  7.91070200
O  -0.36612600  20.60902400  9.10793100
O   2.16775200  25.21981300  8.17779600
O   2.14700000  20.90100000  8.38100000
O   1.04500000  18.46000000  8.38400000
O   3.71000000  23.07500000  8.38400000
O   0.28569000  20.18073300  6.58138800
O   3.83610200  24.66321200  6.17703300
O   3.77043300  21.36192400  6.29528000
Si  6.22215900  10.74653200  7.88921900
Si  6.22645700  16.89748000  8.01447000
Si  8.87328100  15.40632600  8.11125500
Si  8.88935500  12.36355500  7.94013500
O   4.81100000  11.40400000  8.38100000
O   4.83580200  16.23089400  8.53927200
O   7.52160300  16.13420100  8.64458000
O   7.47600000  11.67100000  8.38100000
O   6.39744100  9.26695100  8.53479300
O   8.92558000  13.86006700  8.61727800
O   6.19225700  10.56781400  6.27450100
O   6.34984900  16.73038600  6.39179900
O   8.87878000  15.40732600  6.46537100
O   9.00357000  12.52616100  6.31337800
Si  6.21046600  20.01848800  8.00358800
Si  6.22220200  26.17740200  7.89653900
Si  8.88050000  24.57644900  7.92198600
Si  8.84789300  21.53911900  8.06939200
O   4.82759700  20.68715400  8.53863200
O   4.81100000  25.51600000  8.38100000
O   7.47600000  25.24900000  8.38100000
O   7.50750000  20.79763800  8.64895400
O   6.27044700  18.46392300  8.43587400
O   8.95366900  23.07735200  8.57910800
O   6.33560500  20.19481300  6.38406700
O   6.19439400  26.36533800  6.28265300
O   9.00039300  24.43565400  6.29467800
O   8.83132300  21.53816800  6.43156000
O   6.39540100  27.65571000  8.54558100
Si  11.54724600  10.92156100  7.71230600
Si  11.54184500  16.90876000  8.05811500
Si  14.18258800  15.40065800  7.92314300
Si  14.22677400  12.29540300  7.93137700
O   10.14000000  11.40400000  8.38100000
O   10.17689900  16.23604200  8.61751100
O   12.87358300  16.14373000  8.62230400
O   12.80500000  11.67100000  8.38100000
O   11.69240600  9.30803000  7.88997800
O   14.36800000  13.84500000  8.38400000
O   11.52554100  11.22156500  6.10255600
O   11.54824700  16.80107600  6.42794000
O   14.05176600  15.48068700  6.30093700
O   14.38918700  12.10369400  6.31645100
Si  11.51871400  20.03961500  7.99147600
Si  11.54075600  26.01974200  7.70785000
Si  14.23340600  24.62557400  7.89322500
Si  14.19586900  21.52369400  7.89554200
O   10.15792800  20.72368000  8.59670000
O   10.14000000  25.51600000  8.38100000
O   12.80500000  25.24900000  8.38100000
O   12.81299400  20.88537200  8.49507400
O   11.61577700  18.48937300  8.51121900
O   14.36800000  23.07500000  8.38400000
O   11.49399400  20.09455700  6.36314900
O   11.52765100  25.72377100  6.10304000
O   14.35655500  24.78810000  6.28018200
O   14.16601000  21.43203800  6.26018700
O   11.70135200  27.62284000  7.90765200
Si  16.94190400  16.87345800  8.03253500
O   15.46812800  11.47675500  8.59957900
O   15.46900000  16.28600000  8.38100000
O   18.07939600  16.20885300  8.98411800
O   17.30899500  16.56269500  6.47505700
Si  16.78371000  19.92242000  7.71802700
O   15.46900000  20.63400000  8.38100000
O   15.47327600  25.45128100  8.54014300
O   18.10825300  20.83145100  7.97600100
O   17.03200000  18.46000000  8.38400000
O   16.55777200  19.80398100  6.11215400
H  -0.51005300  15.44065200  9.07511300
H   1.70175100  12.08590900  8.94194800
H   0.32011400  15.96525000  6.04644000
H   3.05996600  15.35152600  5.69534200
H   3.16286400  12.62656200  5.59215900
H  -0.12739800  20.79332000  10.02087200
H   1.69462500  24.83258300  8.91975600
H   0.06704500  21.06288800  6.26633700