Running on  hostname
Mon Nov  3 09:23:07 AM CET 2025

                                 *****************
                                 * O   R   C   A *
                                 *****************

                                            #,                                       
                                            ###                                      
                                            ####                                     
                                            #####                                    
                                            ######                                   
                                           ########,                                 
                                     ,,################,,,,,                         
                               ,,#################################,,                 
                          ,,##########################################,,             
                       ,#########################################, ''#####,          
                    ,#############################################,,   '####,        
                  ,##################################################,,,,####,       
                ,###########''''           ''''###############################       
              ,#####''   ,,,,##########,,,,          '''####'''          '####       
            ,##' ,,,,###########################,,,                        '##       
           ' ,,###''''                  '''############,,,                           
         ,,##''                                '''############,,,,        ,,,,,,###''
      ,#''                                            '''#######################'''  
     '                                                          ''''####''''         
             ,#######,   #######,   ,#######,      ##                                
            ,#'     '#,  ##    ##  ,#'     '#,    #''#        ,####,    ,#,          
            ##       ##  ##   ,#'  ##            #'  '#       #'       ,# #          
            ##       ##  #######   ##           ,######,      #####,      #          
            '#,     ,#'  ##    ##  '#,     ,#' ,#      #,     #,   #      #          
             '#######'   ##     ##  '#######'  #'      '#     '####' #    #          



                #########################################################
                #                        -***-                          #
                #          Department of theory and spectroscopy        #
                #                                                       #
                #                      Frank Neese                      #
                #                                                       #
                #     Directorship, Architecture, Infrastructure        #
                #                    SHARK, DRIVERS                     #
                #        Core code/Algorithms in most modules           #
                #                                                       #
                #        Max Planck Institute fuer Kohlenforschung      #
                #                Kaiser Wilhelm Platz 1                 #
                #                 D-45470 Muelheim/Ruhr                 #
                #                      Germany                          #
                #                                                       #
                #                  All rights reserved                  #
                #                        -***-                          #
                #########################################################


                         Program Version 6.1.0  -  RELEASE   -
                                (GIT: $679e74b$)
                          ($2025-06-10 18:02:51 +0200$)


 With contributions from (in alphabetic order):
[Max-Planck-Institut fuer Kohlenforschung]                               
  Daniel Aravena         : Magnetic Suceptibility                        
  Michael Atanasov       : Ab Initio Ligand Field Theory (pilot matlab implementation)
  Alexander A. Auer      : GIAO ZORA, VPT2 properties, NMR spectrum      
  Ute Becker             : All parallelization in ORCA, NUMFREQ, NUMCALC 
  Giovanni Bistoni       : ED, misc. LED, open-shell LED, HFLD           
  Dmytro Bykov           : pre 5.0 version of the SCF Hessian            
  Marcos Casanova-Páez   : Triplet and SCS-CIS(D). UHF-(DLPNO)-IP/EA/STEOM-CCSD. UHF-CVS-IP/STEOM-CCSD   
  Vijay G. Chilkuri      : MRCI spin determinant printing, contributions to CSF-ICE 
  Pauline Colinet        : FMM embedding                                 
  Dipayan Datta          : RHF DLPNO-CCSD density                        
  Achintya Kumar Dutta   : EOM-CC, STEOM-CC                              
  Nicolas Foglia         : Exact transition moments, OPA infrastructure, MCD improvements    
  Dmitry Ganyushin       : Spin-Orbit,Spin-Spin,Magnetic field MRCI      
  Miquel Garcia-Rates    : C-PCM and meta-GGA Hessian, CCSD/C-PCM, Gaussian charge scheme 
  Tiago L. C. Gouveia    : GS-ROHF, GS-ROCIS                             
  Yang Guo               : DLPNO-NEVPT2, F12-NEVPT2, CIM, IAO-localization        
  Andreas Hansen         : Spin unrestricted coupled pair/coupled cluster methods 
  Ingolf Harden          : AUTO-CI MPn and infrastructure                
  Benjamin Helmich-Paris : MC-RPA, TRAH-(SCF,CASSCF), AVAS, COSX integrals, SCF dyn. polar., MC-PDFT, srDFT 
  Lee Huntington         : MR-EOM, pCC                                   
  Robert Izsak           : Overlap fitted RIJCOSX, COSX-SCS-MP3, EOM     
  Riya Kayal             : Wick's Theorem for AUTO-CI, AUTO-CI UHF-CCSDT 
  Emily Kempfer          : AUTO-CI RHF CISDT and CCSDT, approximate NEVPT4
  Christian Kollmar      : KDIIS, OOCD, Brueckner-CCSD(T), CCSD density, CASPT2, CASPT2-K, improved NEVPT2 
  Axel Koslowski         : Symmetry handling                             
  Simone Kossmann        : meta-GGA functionals, TD-DFT gradient, OOMP2, (MP2 Hessian; deprecated post 5.0) 
  Lucas Lang             : DCDCAS, Hyperfine gauge corrections, ICE-SOC+SSC
  Marvin Lechner         : AUTO-CI (C++ implementation), FIC-MRCC        
  Spencer Leger          : CASSCF response                               
  Dagmar Lenk            : GEPOL surface, SMD, ORCA-2-JSON               
  Dimitrios Liakos       : Extrapolation schemes; Compound Job, Property file
  Dimitrios Manganas     : Further ROCIS development; embedding schemes. LFT, Crystal Embedding 
  Dimitrios Pantazis     : SARC Basis sets                               
  Anastasios Papadopoulos: AUTO-CI, single reference methods and gradients 
  Taras Petrenko         : pre 6.0 DFT Hessian and TD-DFT gradient,  ECA, NRVS 
  Petra Pikulova         : Analytic Raman intensities                    
  Peter Pinski           : DLPNO-MP2, DLPNO-MP2 Gradient                 
  Shashank Vittal Rao    : ES-AILFT, MagRelax                            
  Christoph Reimann      : Effective Core Potentials                     
  Marius Retegan         : Local ZFS, SOC                                
  Christoph Riplinger    : Optimizer, TS searches, QM/MM, DLPNO-CCSD(T), (RO)-DLPNO pert. Triples 
  Michael Roemelt        : Original ROCIS implementation, recursive CI coupling coefficients
  Masaaki Saitow         : Open-shell DLPNO-CCSD energy and density      
  Barbara Sandhoefer     : DKH picture change effects                    
  Yorick L. A. Schmerwitz: GMF and freeze-and-release deltaSCF, NEB S-IDPP initial path                    
  Kantharuban Sivalingam : CASSCF convergence/infrastructure, NEVPT2, NEVPT3, NEVPT4(SD), FIC-MRCI and CEPA variants
  Bernardo de Souza      : ESD, SOC TD-DFT                               
  Georgi L. Stoychev     : AutoAux, RI-MP2 NMR, DLPNO-MP2 response, X2C  
  Van Anh Tran           : RI-MP2 g-tensors                              
  Willem Van den Heuvel  : Paramagnetic NMR                              
  Zikuan Wang            : NOTCH, Electric field optimization            
  Frank Wennmohs         : Technical directorship and infrastructure     
  Hang Xu                : AUTO-CI-Response properties                   
                                                                         
[FACCTs GmbH]                                                            
  Markus Bursch, Nicolas Foglia, Miquel Garcia-Rates, Ingolf Harden, Hagen Neugebauer, Anastasios Papadopoulos, 
  Christoph Riplinger, Bernardo de Souza, Georgi L. Stoychev                                                    
                                                                 
  APM, various basis sets, CI-OPT, improved COSX, DLPNO-Multilevel,           
  DOCKER, DRACO, updates on ESD, Fragmentator, GOAT, IRC, LR-CPCM, L-BFGS, MBIS, meta-GGA TD-DFT gradient, ML-optimized integration grids, 
  MM, NACMEs, nearIR, NEB, NEB-TS, NL-DFT gradient (VV10), 2- and 3-layer-ONIOM, interface openCOSMO-RS, QMMM,   
  Crystal-QMMM, RESP, rigid body optimization, SF, symmetry and pop. for TD-DFT, various functionals, SOLVATOR                                   
                                                                         
[Other institutions]                                                     
  V. Asgeirsson          : NEB                                           
  Christoph Bannwarth    : sTDA-DFT, sTD-DFT, PBEh-3c, B97-3c, D3        
  Giovanni Bistoni       : ETS/NOCV, ADLD/ADEX, COVALED                  
  Martin Brehm           : Molecular dynamics                            
  Ronald Cardenas        : ETS/NOCV                                      
  Martina Colucci        : COVALED                                       
  Sebastian Ehlert       : rSCAN, r2SCAN, r2SCAN-3c, D4, dhf basis sets  
  Marvin Friede          : D4 for Fr, Ra, Ac-Lr                          
  Lars Goerigk           : TD-DFT with DH, B97 family of functionals     
  Stefan Grimme          : VdW corrections, initial TS optimization, DFT functionals, gCP, sTDA/sTD-DF 
  Waldemar Hujo          : DFT-NL                                        
  H. Jonsson             : NEB                                           
  Holger Kruse           : gCP                                           
  Marcel Mueller         : wB97X-3c, vDZP basis set                      
  Hagen Neugebauer       : wr2SCAN, Native XTB                           
  Gianluca Regni         : ADLD/ADEX                                     
  Tobias Risthaus        : pre 6.0 range-separated hybrid DFT and stability analysis
  Lukas Wittmann         : regularized MP2, r2SCAN double-hybrids, wr2SCAN        
                                                                         
We gratefully acknowledge several colleagues who have allowed us to      
interface, adapt or use parts of their codes:                            
  Ed Valeev, F. Pavosevic, A. Kumar             : LibInt (2-el integral package), F12 methods 
  Garnet Chan, S. Sharma, J. Yang, R. Olivares  : DMRG                   
  Ulf Ekstrom                                   : XCFun DFT Library      
  Mihaly Kallay                                 : mrcc  (arbitrary order and MRCC methods)
  Frank Weinhold                                : gennbo (NPA and NBO analysis)           
  Simon Mueller                                 : openCOSMO-RS                            
  Christopher J. Cramer and Donald G. Truhlar   : smd solvation model                     
  S Lehtola, MJT Oliveira, MAL Marques          : LibXC Library                           
  Liviu Ungur et al                             : ANISO software                          


 Your calculation uses the libint2 library for the computation of 2-el integrals
 For citations please refer to: http://libint.valeyev.net

 Your ORCA version has been built with support for libXC version: 7.0.0
 For citations please refer to: https://libxc.gitlab.io

 This ORCA versions uses:
   CBLAS   interface :  Fast vector & matrix operations
   LAPACKE interface :  Fast linear algebra routines
   SCALAPACK package :  Parallel linear algebra routines
   Shared memory     :  Shared parallel matrices
   BLAS/LAPACK       :  OpenBLAS 0.3.29  USE64BITINT DYNAMIC_ARCH NO_AFFINITY Haswell SINGLE_THREADED
        Core in use  :  Haswell
   Copyright (c) 2011-2014, The OpenBLAS Project


  ***********************************
  * Starting time: Mon Nov  3 09:23:11 2025
  * Host name:     node235.cluster
  * Process ID:    383662
  * Working dir.:  /data/scratch/54423624
  ***********************************

NOTE: MaxCore=2500 MB was set to SCF,MP2,MDCI,CIPSI,MRCI,RASCI and CIS
      => If you want to overwrite this, your respective input block should be placed after the MaxCore statement
Your calculation utilizes the atom-pairwise dispersion correction
with the Becke-Johnson damping scheme (D3BJ)


Warning: RI is on but no J-basis has been assigned. Assigning Def2/J (nothing to worry about!)
================================================================================

----- Orbital basis set information -----
Your calculation utilizes the basis: ma-def2-TZVP
   F. Weigend and R. Ahlrichs, Phys. Chem. Chem. Phys. 7, 3297 (2005).
   J. Zheng, X. Xu and D. G. Truhlar, Theor. Chem. Acc. 128, 295 (2011).

----- AuxJ basis set information -----
Your calculation utilizes the auxiliary basis: def2/J
   H-Rn: F. Weigend, Phys. Chem. Chem. Phys. 8, 1057 (2006).
   Fr-Lr: K. Eichkorn, F. Weigend, O. Treutler, R. Ahlrichs; Theor. Chem. Acc. 97, 119 (1997).

================================================================================
                                        WARNINGS
                       Please study these warnings very carefully!
================================================================================


WARNING: Geometry Optimization
  ===> : Switching off AutoStart
         For restart on a previous wavefunction, please use MOREAD

================================================================================
                                       INPUT FILE
================================================================================
NAME = frame008.inp
|  1> ! PBE0 D3BJ CPCM(water) Opt ma-def2-TZVP
|  2> 
|  3> %pal
|  4>   nprocs 12
|  5> end
|  6> 
|  7> %maxcore 2500
|  8> 
|  9> %scf
| 10>   # A safety mechanism for difficult convergence
| 11>   MaxIter 500  # Increase max iterations from default 125
| 12> end
| 13> 
| 14> %geom
| 15>   Constraints
| 16>     { C 4 C }
| 17>     { C 6 C }
| 18>     { C 15 C }
| 19>     { C 16 C }
| 20>     { C 17 C }
| 21>     { C 25 C }
| 22>     { C 28 C }
| 23>     { C 40 C }
| 24>     { C 41 C }
| 25>     { C 54 C }
| 26>     { C 57 C }
| 27>     { C 59 C }
| 28>     { C 69 C }
| 29>     { C 70 C }
| 30>     { C 73 C }
| 31>     { C 81 C }
| 32>     { C 85 C }
| 33>     { C 88 C }
| 34>   end
| 35> end
| 36> 
| 37> * xyz -1 1
| 38> Si 0.82550255444830789031 16.90273321444780307843 8.02672835383194893666
| 39> Si 3.57859345409611950828 15.40405369627466569682 7.91524256682774929317
| 40> Si 3.61525347213513992273 12.32827188614222890806 7.79142758977786975549
| 41> O  -0.39399254802997951685 16.38822460846947492996 8.97049796234297680542
| 42> O  2.14699992899610325736 16.01900001063886236352 8.38100001484119871975
| 43> O  2.16833121962260833016 11.70013060986692465804 8.17358994255896575964
| 44> O  3.71000007458651914760 13.84500001044804307071 8.38399997023174670119
| 45> O  0.51413263662883323946 16.82449474235048469950 6.43064562656146598840
| 46> O  3.78242852312190525055 15.56381404911884480669 6.30078739993704939337
| 47> O  3.83835818325193312006 12.26151674337796748659 6.17638957659583631710
| 48> Si 0.79040521345095804406 20.03769999751825281464 8.11798346992168262659
| 49> Si 3.61646548633576081500 24.59144274113169004181 7.78977790643984580043
| 50> Si 3.57392347552433076174 21.51644693589029699865 7.91298148051966432348
| 51> O  -0.36656750918730018896 20.60916375636971054064 9.10618692062654666586
| 52> O  2.16894289328225831071 25.21986234295466289268 8.16918535718602356610
| 53> O  2.14699987441304784852 20.90100010258307250410 8.38099996412729453255
| 54> O  1.04500007222925450634 18.45999992648232179704 8.38400000867592787301
| 55> O  3.71000014039923531328 23.07499992171632996474 8.38399999820707364506
| 56> O  0.28796921258856400527 20.17942496565366283789 6.58029563313822762893
| 57> O  3.84322893308355872932 24.65740308511731271324 6.17523017744375124494
| 58> O  3.76807242767052574806 21.35886612623023239621 6.29712044108810875542
| 59> Si 6.22270347615509678008 10.74478962109476931630 7.89204932940300629696
| 60> Si 6.22770174385752284252 16.89731272838292497340 8.01236746082513562328
| 61> Si 8.87567171442405467019 15.40393509802128946262 8.07146730593755101779
| 62> Si 8.88270018411405537506 12.35331724859305069231 7.92738866725646129652
| 63> O  4.81099995309612804562 11.40399997177614466182 8.38100000517004772860
| 64> O  4.84026656347569783634 16.22821161341778761766 8.54553521744412236671
| 65> O  7.53252329471983816944 16.13444943459088420923 8.63606386342100407205
| 66> O  7.47600001180914830456 11.67100002714548878657 8.38099999506347614897
| 67> O  6.39553672263131467446 9.26420229033229780669 8.53484835406264075175
| 68> O  8.97115846415149675863 13.85656776011505897372 8.57903225740981234537
| 69> O  6.19358004089122715641 10.56500296568346897175 6.27778410221728133678
| 70> O  6.34068238160005925863 16.74021432772045869797 6.38952252890096872306
| 71> O  8.84554261890774107258 15.39082819679083158348 6.42808052169820420829
| 72> O  8.99617644831227636359 12.49448485865493196911 6.29922600211202521336
| 73> Si 6.21638834983519839028 20.01550516754898723093 8.00088210558522128224
| 74> Si 6.22275723772224331753 26.17797517799139228600 7.89639692585670527336
| 75> Si 8.88164513741373085054 24.57359632956917039337 7.91870133933579634089
| 76> Si 8.85075340123915488277 21.52825979923969867968 8.03684235121820478298
| 77> O  4.83212180640776711726 20.68555660778747196105 8.53863762139587478828
| 78> O  4.81099990592077109142 25.51600006705941225960 8.38100000505947662077
| 79> O  7.47600002611790692697 25.24899994642432687897 8.38099999405678453002
| 80> O  7.51705029343050501467 20.79206831100825070280 8.61378728848040253752
| 81> O  6.27926967827114701493 18.45840712159915497637 8.45642098844599132690
| 82> O  8.96178714260704012418 23.06765938404000593209 8.56086479267450606301
| 83> O  6.31668642104497468637 20.15996001725761033185 6.37582712207481971944
| 84> O  6.19404507085692035417 26.36676298149886221722 6.28308224223711242473
| 85> O  8.99771842566463675439 24.44641163284628149199 6.28994570370382000135
| 86> O  8.79833296081798010846 21.55854515706468532699 6.39502417919361310084
| 87> O  6.39500684263187402223 27.65560332923089958967 8.54611655720351137688
| 88> Si 11.54077773940208118120 10.90435190012901678358 7.70392439398100581371
| 89> Si 11.54475443644537691057 16.89738978731071838979 7.91695221975753860022
| 90> Si 14.20353636779983830252 15.39713050024965212970 7.87470928549655457829
| 91> Si 14.23582000546047154899 12.29374205727154567569 7.89821818490581684102
| 92> O  10.13999999443510624531 11.40399999022641175372 8.38099999998976130655
| 93> O  10.19474380605396746091 16.23030440243677219314 8.55061143341925422590
| 94> O  12.85059861184698881686 16.10098625528505067450 8.48098101068035958860
| 95> O  12.80500001833899403891 11.67100000365917722434 8.38099999911838011712
| 96> O  11.70002193810664614659 9.30021622827963234670 7.89283361195503907481
| 97> O  14.36799996619393837705 13.84500001097802623917 8.38400000050659421902
| 98> O  11.52647381252630687243 11.21103037747620057019 6.10107396451269234916
| 99> O  11.53153702039206507379 16.72019065384241187644 6.29171038784878255967
|100> O  14.13836303974277619488 15.44005711152897575289 6.24791031922128681231
|101> O  14.36592144614937005542 12.11520262477894149811 6.28747362213574589873
|102> Si 11.52107502489896972975 20.04305294434251649704 7.85872171327448487688
|103> Si 11.54104380239207827685 26.02008594828916088204 7.70790688202718410338
|104> Si 14.23698927203610686831 24.62924591767031756717 7.90140958601787790627
|105> Si 14.21263218858607935147 21.53527649078097994106 7.85646399441668918939
|106> O  10.17156468469722341297 20.69915965967712523366 8.49678381323192333241
|107> O  10.14000000001342272071 25.51600001024518959980 8.38100000360093488894
|108> O  12.80500000545176320088 25.24900000657456899944 8.38100000765176211814
|109> O  12.80500002202746401281 20.90099992953240715110 8.38100001439989483742
|110> O  11.64364372668909552999 18.47899258315547044162 8.30700784468858799414
|111> O  14.36799991860414493772 23.07499998999197643457 8.38400002250502573986
|112> O  11.49649712457184236314 20.16818414694973427004 6.23103186611351578250
|113> O  11.52979969083827072041 25.72254299511107689113 6.10357093074117162956
|114> O  14.36785320266353060958 24.80206541933113939535 6.29032779715826340095
|115> O  14.23459250738216042009 21.46715807437434264671 6.21933352261771865699
|116> O  11.70097780540379694969 27.62284072038842452912 7.90688338342797170100
|117> Si 16.94924853795045294191 16.87134190586787241273 8.04468243461751875145
|118> O  15.47124958231976243894 11.46932692184843816108 8.55583957735876765582
|119> O  15.46900003543686707985 16.28599999002517506597 8.38100000292202018670
|120> O  18.07446201089469894896 16.21289847872417411168 9.01232914030681087070
|121> O  17.32777016188981278333 16.54921092148164873947 6.49330995610843686450
|122> Si 16.79747638409808985216 19.93081091239370294943 7.73267174249836486410
|123> O  15.46900003668413958735 20.63400001739521627542 8.38100000434831038376
|124> O  15.47112709044067813124 25.45236983511671979841 8.56102281464027825564
|125> O  18.11634119040923707189 20.83520173824921073447 8.03021783297826097225
|126> O  17.03199996135928273588 18.45999999792296364376 8.38399999810538965050
|127> O  16.60876852693885652457 19.83038374808794301885 6.12139245026870604249
|128> H  -0.50423259851612911575 15.43969751417815849948 9.08178114826410087801
|129> H  1.69998150339588427471 12.07827983443108088579 8.92297353571180273946
|130> H  0.31527828102573351998 15.96291628488700986566 6.05244511919792671506
|131> H  3.06011690873984232297 15.36094418631473601522 5.69970908371932960534
|132> H  3.18226077413901276003 12.64156661880492116268 5.58570418816849745269
|133> H  -0.12746512782866936675 20.79216845752846865025 10.01911989987954498815
|134> H  1.69595558367745358197 24.83705368299732185733 8.91328417967800845645
|135> H  0.06870205804555240547 21.06154561967940708200 6.26602478752704961096
|136> H  3.18504441480897693140 24.28262459398708728031 5.58349175261114716307
|137> H  3.04237625295811842108 21.56618417226807338238 5.70151829985415758983
|138> H  6.86261732005388935818 9.19605253052986526541 9.37200294392480870442
|139> H  5.50488190496928631035 11.07966287495125712326 5.83436112711833043676
|140> H  5.53947205637678585788 16.40054318792264709259 5.95952170197414332620
|141> H  8.05967270759116338752 15.81862342186620651319 6.04527862828694928510
|142> H  8.86604803728096513282 13.39292818084941139034 5.95934373446458565127
|143> H  5.51369467383215017264 20.50209974140828350642 5.95097614217830805927
|144> H  5.50812286202622392040 25.85154711714660180633 5.83617094396356073105
|145> H  8.84698059746064124909 23.55488086762398580731 5.94014873900736262158
|146> H  8.01534686521650385771 21.12144571449147534281 6.01740514219101285676
|147> H  6.85640193567111833062 27.71938859590896342411 9.38677005630617955489
|148> H  12.07465572202237069632 8.98126917935434931906 8.71867792183698320230
|149> H  10.73932833029388334012 11.69412444781839788277 5.80207311873992814810
|150> H  10.72187988600104624481 16.34829358827623124739 5.91526737367973343140
|151> H  13.31446530488562984829 15.80088676079198251045 5.88887823866365067715
|152> H  13.52713006146539953534 11.98281383956366141774 5.82547799856000203533
|153> H  10.69115572778767742079 20.54020170724026073117 5.84772945220217366114
|154> H  10.74283607549669028458 25.24201418268134489153 5.79986200402942042587
|155> H  13.53075164699894017417 24.94716799880337276818 5.82892497294304323674
|156> H  13.39832301387490076650 21.21040224605908264266 5.80701731826576850182
|157> H  12.07260089159897553657 27.93684520736380960670 8.73599233873336977751
|158> H  15.82850340183908777192 11.79809416302380498109 9.38506512867457232119
|159> H  18.14928359241595856588 15.25438693193882500054 9.00788299567356887110
|160> H  16.62567003253111153072 16.64916104293875065423 5.84290708838433747729
|161> H  15.82415888945913806651 25.12896139047212784590 9.39417316314067818439
|162> H  18.51458376064795530169 20.76863316158141614665 8.90270021080264939428
|163> H  15.82968317590604812040 20.30123648134353331329 5.78901744259826500638
|164> P  14.02950298572298493127 17.04534824683277349777 11.66967027830381553599
|165> O  10.07315417311989413918 17.80455489183364292671 13.02750882534198950680
|166> O  7.71732970681545094038 19.92448744549545480709 12.36084772848191803973
|167> O  7.96730761024368749901 18.08167755006303778487 10.71133422937313106615
|168> O  12.46651709766184445982 16.90817369935831848693 12.01422548602791273709
|169> O  14.79750365974955883530 17.30042262919747031447 12.94485230880941983855
|170> O  14.19471249516399424806 18.32451684517922529949 10.70716045388689074969
|171> O  15.18277741831006011353 21.04596010628126023789 11.64633521093434076477
|172> O  14.50140436553711253964 15.79011407622690299490 10.97452921570444850374
|173> N  11.20490304233731926331 19.84219267557546118042 13.39837027798507129717
|174> N  13.41743915066957271165 19.61870264648659656359 13.52734188783994007110
|175> N  11.13341974648417398441 21.65330445712713114403 11.71719317361354661955
|176> N  13.32140318220863761667 22.24812796123892155720 10.99853679466017908339
|177> N  11.41274155042066063004 23.29761787058460953403 10.11346448910941120403
|178> C  9.07672188791112866113 19.74098159051829526334 12.03517085123764651655
|179> C  9.24200024455106472487 18.63150593695163337316 10.95208525898222085004
|180> C  9.88208095083112070256 19.20484495707058414382 13.24776267515852978818
|181> C  10.19161638926278001804 17.59331544133531721741 11.62156467216776789542
|182> C  11.67079954372420047548 17.72161442681763432461 11.21374941604221397995
|183> C  11.75309719497490235085 20.81508832163099498302 12.58230779234358642782
|184> C  12.27562976094253244241 19.16022989715376212416 13.95802236433900844759
|185> C  13.13526408255339994469 20.64479697670506652685 12.69011693157487741246
|186> C  13.99770893290859063995 21.32959870959510695343 11.77241678981217098965
|187> C  11.94316064035053770453 22.38788799369668680583 10.99074519129351656943
|188> H  9.44856701109362795421 20.72259052530946377146 11.71534560983717909721
|189> H  9.64887717616035267554 19.03027163530138210490 10.00978822420715097508
|190> H  9.30425699057354549382 19.32540842727984298222 14.17274442909398501911
|191> H  9.83598949021958190997 16.57015736195837263267 11.43359023902700855047
|192> H  12.01533083826267045424 18.75634819146344867136 11.35442188918437977918
|193> H  11.85282020353565357595 17.44617106993811006532 10.16491834573401398245
|194> H  7.16918976625998283225 19.56968304629939225947 11.62830413793409256584
|195> H  7.96053890126040997188 17.39342892673652940516 10.00666257398066427697
|196> H  12.18210425232451221689 18.24464267531358174779 14.52749012958656571470
|197> H  13.81232204814265074333 22.63199529549657640359 10.19433723675189717994
|198> H  11.97747847623185180055 23.90922146427948646874 9.53361339697695342466
|199> H  10.47858746630198645278 23.19219814580491600964 9.73344236592082800996
|200> H  14.65221733405573800724 19.10288150282339714181 11.08436441331904198648
|201> *
|202> 
|203>                          ****END OF INPUT****
================================================================================

                       *****************************
                       * Geometry Optimization Run *
                       *****************************

Geometry optimization settings:
Update method            Update   .... BFGS
Choice of coordinates    CoordSys .... (2022) Redundant Internals
Initial Hessian          InHess   .... Almloef's Model
Max. no of cycles        MaxIter  .... 489

Convergence Tolerances:
Energy Change            TolE     ....  5.0000e-06 Eh
Max. Gradient            TolMAXG  ....  3.0000e-04 Eh/bohr
RMS Gradient             TolRMSG  ....  1.0000e-04 Eh/bohr
Max. Displacement        TolMAXD  ....  4.0000e-03 bohr
RMS Displacement         TolRMSD  ....  2.0000e-03 bohr
Strict Convergence                .... False

------------------------------------------------------------------------------
                        ORCA OPTIMIZATION COORDINATE SETUP
------------------------------------------------------------------------------

The optimization will be done in redundant internal coordinates (2022)
Making redundant internal coordinates   ...  (2022 redundants) done
Evaluating the initial hessian          ...  (Almloef) done
Evaluating the coordinates              ...  done
Calculating the B-matrix                .... done
Calculating the G-matrix                .... done
Will constrain atom 4 coordinate 1 
Will constrain atom 4 coordinate 2 
Will constrain atom 4 coordinate 3 
Will constrain atom 6 coordinate 1 
Will constrain atom 6 coordinate 2 
Will constrain atom 6 coordinate 3 
Will constrain atom 15 coordinate 1 
Will constrain atom 15 coordinate 2 
Will constrain atom 15 coordinate 3 
Will constrain atom 16 coordinate 1 
Will constrain atom 16 coordinate 2 
Will constrain atom 16 coordinate 3 
Will constrain atom 17 coordinate 1 
Will constrain atom 17 coordinate 2 
Will constrain atom 17 coordinate 3 
Will constrain atom 25 coordinate 1 
Will constrain atom 25 coordinate 2 
Will constrain atom 25 coordinate 3 
Will constrain atom 28 coordinate 1 
Will constrain atom 28 coordinate 2 
Will constrain atom 28 coordinate 3 
Will constrain atom 40 coordinate 1 
Will constrain atom 40 coordinate 2 
Will constrain atom 40 coordinate 3 
Will constrain atom 41 coordinate 1 
Will constrain atom 41 coordinate 2 
Will constrain atom 41 coordinate 3 
Will constrain atom 54 coordinate 1 
Will constrain atom 54 coordinate 2 
Will constrain atom 54 coordinate 3 
Will constrain atom 57 coordinate 1 
Will constrain atom 57 coordinate 2 
Will constrain atom 57 coordinate 3 
Will constrain atom 59 coordinate 1 
Will constrain atom 59 coordinate 2 
Will constrain atom 59 coordinate 3 
Will constrain atom 69 coordinate 1 
Will constrain atom 69 coordinate 2 
Will constrain atom 69 coordinate 3 
Will constrain atom 70 coordinate 1 
Will constrain atom 70 coordinate 2 
Will constrain atom 70 coordinate 3 
Will constrain atom 73 coordinate 1 
Will constrain atom 73 coordinate 2 
Will constrain atom 73 coordinate 3 
Will constrain atom 81 coordinate 1 
Will constrain atom 81 coordinate 2 
Will constrain atom 81 coordinate 3 
Will constrain atom 85 coordinate 1 
Will constrain atom 85 coordinate 2 
Will constrain atom 85 coordinate 3 
Will constrain atom 88 coordinate 1 
Will constrain atom 88 coordinate 2 
Will constrain atom 88 coordinate 3 
The number of degrees of freedom        ....  947
Storing new coordinates                 .... done

    -----------------------------------------------------------------
                    Redundant Internal Coordinates


    -----------------------------------------------------------------
         Definition                    Initial Value    Approx d2E/dq
    -----------------------------------------------------------------
      1. B(O   3,Si  0)                  1.6256         1.023667   
      2. B(O   4,Si  0)                  1.6288         1.011880   
      3. B(O   4,Si  1)                  1.6262         1.021402   
      4. B(O   5,Si  2)                  1.6230         1.033431   
      5. B(O   6,Si  2)                  1.6311         1.003098   
      6. B(O   6,Si  1)                  1.6333         0.995153   
      7. B(O   7,Si  0)                  1.6281         1.014503   
      8. B(O   8,Si  1)                  1.6351         0.988589   
      9. B(O   9,Si  2)                  1.6317         1.000846   
     10. B(O  13,Si 10)                  1.6253         1.024692   
     11. B(O  14,Si 11)                  1.6230         1.033444   
     12. B(O  15,Si 10)                  1.6294         1.009640   
     13. B(O  15,Si 12)                  1.6229         1.033743   
     14. B(O  16,Si  0)                  1.6127         1.073239   
     15. B(O  16,Si 10)                  1.6201         1.044580   
     16. B(O  17,Si 11)                  1.6314         1.002122   
     17. B(O  17,Si 12)                  1.6338         0.993126   
     18. B(O  18,Si 10)                  1.6239         1.030141   
     19. B(O  19,Si 11)                  1.6317         1.000894   
     20. B(O  20,Si 12)                  1.6351         0.988594   
     21. B(Si 23,Si 22)                  3.0406         0.027455   
     22. B(O  25,Si 21)                  1.6330         0.996398   
     23. B(O  25,Si  2)                  1.6222         1.036371   
     24. B(O  26,Si 22)                  1.6300         1.007222   
     25. B(O  26,Si  1)                  1.6335         0.994398   
     26. B(O  27,Si 23)                  1.6299         1.007759   
     27. B(O  27,Si 22)                  1.6351         0.988612   
     28. B(O  28,Si 24)                  1.6279         1.014993   
     29. B(O  28,Si 21)                  1.6333         0.995107   
     30. B(O  29,Si 21)                  1.6233         1.032254   
     31. B(O  30,Si 24)                  1.6408         0.968086   
     32. B(O  30,Si 23)                  1.6313         1.002531   
     33. B(O  31,Si 21)                  1.6245         1.027800   
     34. B(O  32,Si 22)                  1.6343         0.991333   
     35. B(O  33,Si 23)                  1.6437         0.957775   
     36. B(O  34,Si 24)                  1.6382         0.977357   
     37. B(Si 35,Si 12)                  3.0403         0.027492   
     38. B(Si 38,Si 35)                  3.0380         0.027718   
     39. B(O  39,Si 35)                  1.6292         1.010175   
     40. B(O  39,Si 12)                  1.6324         0.998250   
     41. B(O  40,Si 11)                  1.6221         1.036866   
     42. B(O  40,Si 36)                  1.6328         0.996878   
     43. B(O  41,Si 36)                  1.6335         0.994255   
     44. B(O  41,Si 37)                  1.6266         1.020043   
     45. B(O  42,Si 35)                  1.6341         0.992053   
     46. B(O  42,Si 38)                  1.6290         1.011014   
     47. B(O  43,Si 35)                  1.6236         1.031293   
     48. B(O  43,Si 22)                  1.6238         1.030320   
     49. B(O  44,Si 37)                  1.6391         0.974159   
     50. B(O  44,Si 38)                  1.6299         1.007519   
     51. B(O  45,Si 35)                  1.6345         0.990598   
     52. B(O  46,Si 36)                  1.6246         1.027538   
     53. B(O  47,Si 37)                  1.6378         0.978700   
     54. B(O  48,Si 38)                  1.6429         0.960528   
     55. B(O  49,Si 36)                  1.6233         1.032266   
     56. B(Si 50,Si 24)                  3.0356         0.027967   
     57. B(Si 53,Si 50)                  3.0383         0.027688   
     58. B(O  54,Si 24)                  1.6394         0.972930   
     59. B(O  54,Si 50)                  1.6341         0.992239   
     60. B(O  55,Si 23)                  1.6286         1.012373   
     61. B(O  55,Si 51)                  1.6337         0.993581   
     62. B(O  56,Si 51)                  1.6302         1.006456   
     63. B(O  56,Si 52)                  1.6412         0.966794   
     64. B(O  57,Si 50)                  1.6262         1.021530   
     65. B(O  57,Si 53)                  1.6334         0.994613   
     66. B(O  58,Si 50)                  1.6231         1.033311   
     67. B(O  58,O   3)                 14.0594         0.010000   
     68. B(O  59,Si 52)                  1.6418         0.964508   
     69. B(O  59,Si 53)                  1.6309         1.003919   
     70. B(O  60,Si 50)                  1.6320         0.999938   
     71. B(O  61,Si 51)                  1.6349         0.989202   
     72. B(O  62,Si 52)                  1.6287         1.012203   
     73. B(O  63,Si 53)                  1.6258         1.022844   
     74. B(Si 65,Si 37)                  3.0347         0.028063   
     75. B(Si 66,Si 65)                  3.0397         0.027545   
     76. B(O  68,Si 38)                  1.6259         1.022618   
     77. B(O  68,Si 64)                  1.6306         1.005140   
     78. B(O  69,Si 37)                  1.6387         0.975624   
     79. B(O  69,Si 65)                  1.6340         0.992436   
     80. B(O  70,Si 65)                  1.6264         1.020636   
     81. B(O  70,Si 66)                  1.6324         0.998465   
     82. B(O  71,Si 64)                  1.6301         1.006802   
     83. B(O  71,Si 67)                  1.6306         1.005032   
     84. B(O  72,Si 51)                  1.6320         0.999933   
     85. B(O  72,Si 64)                  1.6316         1.001196   
     86. B(O  73,Si 66)                  1.6327         0.997295   
     87. B(O  73,Si 67)                  1.6350         0.988984   
     88. B(O  74,Si 64)                  1.6327         0.997409   
     89. B(O  75,Si 65)                  1.6317         1.000877   
     90. B(O  76,Si 66)                  1.6256         1.023681   
     91. B(O  77,Si 67)                  1.6387         0.975606   
     92. B(O  78,Si 65)                  1.6230         1.033665   
     93. B(O  80,Si 53)                  1.6243         1.028511   
     94. B(O  81,Si 79)                  1.6269         1.018728   
     95. B(O  81,Si 52)                  1.6272         1.017640   
     96. B(O  82,Si 79)                  1.6236         1.031329   
     97. B(O  83,Si 79)                  1.6290         1.010790   
     98. B(O  85,Si 84)                  1.6370         0.981823   
     99. B(O  85,Si 67)                  1.6328         0.997116   
    100. B(O  86,Si 66)                  1.6235         1.031649   
    101. B(O  87,Si 84)                  1.6266         1.019890   
    102. B(O  88,Si 79)                  1.6266         1.019939   
    103. B(O  88,Si 84)                  1.6256         1.023753   
    104. B(O  89,Si 84)                  1.6254         1.024444   
    105. B(H  90,O   3)                  0.9614         0.517338   
    106. B(H  91,O   5)                  0.9612         0.517651   
    107. B(H  92,O   7)                  0.9617         0.516690   
    108. B(H  93,O   8)                  0.9613         0.517392   
    109. B(H  94,O   9)                  0.9612         0.517763   
    110. B(H  95,O  13)                  0.9613         0.517469   
    111. B(H  96,O  14)                  0.9612         0.517632   
    112. B(H  97,O  18)                  0.9618         0.516606   
    113. B(H  98,O  19)                  0.9612         0.517753   
    114. B(H  99,O  20)                  0.9614         0.517222   
    115. B(H 100,O  29)                  0.9611         0.517935   
    116. B(H 101,O   9)                  2.0715         0.010000   
    117. B(H 101,O  31)                  0.9674         0.506068   
    118. B(H 102,O   8)                  1.9758         0.012454   
    119. B(H 102,O  32)                  0.9707         0.499955   
    120. B(H 103,O  32)                  1.9806         0.012237   
    121. B(H 103,O  33)                  0.9732         0.495326   
    122. B(H 104,O  33)                  2.0523         0.010000   
    123. B(H 104,O  34)                  0.9694         0.502386   
    124. B(H 105,O  20)                  1.9751         0.012486   
    125. B(H 105,O  45)                  0.9707         0.499824   
    126. B(H 106,O  19)                  2.0767         0.010000   
    127. B(H 106,O  46)                  0.9673         0.506200   
    128. B(H 107,O  48)                  2.0481         0.010000   
    129. B(H 107,O  47)                  0.9695         0.502145   
    130. B(H 108,O  45)                  1.9845         0.012061   
    131. B(H 108,O  48)                  0.9730         0.495717   
    132. B(H 109,O  49)                  0.9611         0.517920   
    133. B(H 110,O  58)                  0.9613         0.517480   
    134. B(H 111,O  34)                  1.9815         0.012197   
    135. B(H 111,O  60)                  0.9708         0.499800   
    136. B(H 112,O  33)                  2.1680         0.010000   
    137. B(H 112,O  61)                  0.9672         0.506301   
    138. B(H 113,O  61)                  2.0460         0.010000   
    139. B(H 113,O  62)                  0.9685         0.504050   
    140. B(H 114,O  63)                  0.9667         0.507287   
    141. B(H 114,O  60)                  2.1620         0.010000   
    142. B(H 115,O  74)                  0.9664         0.507909   
    143. B(H 115,O  48)                  2.2180         0.010000   
    144. B(H 116,O  75)                  0.9708         0.499725   
    145. B(H 116,O  47)                  1.9795         0.012284   
    146. B(H 117,O  76)                  0.9668         0.507144   
    147. B(H 117,O  75)                  2.1634         0.010000   
    148. B(H 118,O  77)                  0.9671         0.506577   
    149. B(H 118,O  74)                  2.2097         0.010000   
    150. B(H 119,O  78)                  0.9613         0.517453   
    151. B(H 120,O  80)                  0.9609         0.518236   
    152. B(H 121,O  82)                  0.9614         0.517217   
    153. B(H 122,O  83)                  0.9623         0.515643   
    154. B(H 123,O  86)                  0.9609         0.518205   
    155. B(H 124,O  87)                  0.9614         0.517324   
    156. B(H 125,O  89)                  0.9691         0.502866   
    157. B(H 125,O  77)                  2.0221         0.010507   
    158. B(O 130,P 126)                  1.6064         0.849468   
    159. B(O 131,P 126)                  1.5103         1.209076   
    160. B(O 132,P 126)                  1.6093         0.840269   
    161. B(O 134,P 126)                  1.5105         1.208271   
    162. B(C 140,O 128)                  1.4099         0.520236   
    163. B(C 141,O 129)                  1.4089         0.521984   
    164. B(C 141,C 140)                  1.5593         0.335488   
    165. B(C 142,O 127)                  1.4303         0.482545   
    166. B(C 142,N 135)                  1.4761         0.407917   
    167. B(C 142,C 140)                  1.5513         0.345501   
    168. B(C 143,O 127)                  1.4267         0.489103   
    169. B(C 143,C 141)                  1.5581         0.336880   
    170. B(C 144,O 130)                  1.3913         0.557006   
    171. B(C 144,C 143)                  1.5397         0.360462   
    172. B(C 145,N 135)                  1.3831         0.573936   
    173. B(C 145,N 137)                  1.3546         0.637238   
    174. B(C 146,N 135)                  1.3873         0.565072   
    175. B(C 146,N 136)                  1.3036         0.768595   
    176. B(C 147,N 136)                  1.3540         0.638615   
    177. B(C 147,C 145)                  1.3968         0.609416   
    178. B(C 148,O 133)                  1.2250         1.025772   
    179. B(C 148,N 138)                  1.3784         0.583968   
    180. B(C 148,C 147)                  1.4335         0.532511   
    181. B(C 149,N 137)                  1.3126         0.743534   
    182. B(C 149,N 138)                  1.3853         0.569275   
    183. B(C 149,N 139)                  1.3706         0.600910   
    184. B(H 150,C 140)                  1.0973         0.350544   
    185. B(H 151,C 141)                  1.1011         0.345674   
    186. B(H 151,O  68)                  2.3125         0.010000   
    187. B(H 151,O 129)                  2.0542         0.010000   
    188. B(H 151,O   3)                 10.4365         0.010000   
    189. B(H 151,O  58)                 10.1667         0.010000   
    190. B(H 152,C 142)                  1.0973         0.350607   
    191. B(H 153,C 143)                  1.0994         0.347891   
    192. B(H 154,C 144)                  1.0996         0.347596   
    193. B(H 155,C 144)                  1.0996         0.347664   
    194. B(H 155,O  72)                  2.1360         0.010000   
    195. B(H 155,Si 51)                  2.3344         0.016190   
    196. B(H 155,O  56)                  2.3750         0.010000   
    197. B(H 155,P 126)                  2.6764         0.010000   
    198. B(H 155,O 130)                  2.0214         0.010534   
    199. B(H 156,O 128)                  0.9813         0.480809   
    200. B(H 156,O 129)                  1.9215         0.015206   
    201. B(H 157,O 129)                  0.9850         0.474269   
    202. B(H 157,O  27)                  1.9097         0.015880   
    203. B(H 158,C 146)                  1.0823         0.370452   
    204. B(H 159,N 138)                  1.0174         0.421111   
    205. B(H 159,O  73)                  1.9448         0.013955   
    206. B(H 160,N 139)                  1.0145         0.425611   
    207. B(H 160,O  70)                  1.9515         0.013618   
    208. B(H 161,N 139)                  1.0140         0.426413   
    209. B(H 161,O  44)                  1.9212         0.015219   
    210. B(H 162,O 132)                  0.9785         0.485809   
    211. B(H 162,O 133)                  2.0911         0.010000   
    212. B(H 162,P 126)                  2.2280         0.018509   
    213. A(O   4,Si  0,O   7)          110.0194         0.605426   
    214. A(O   4,Si  0,O  16)          111.4265         0.612047   
    215. A(O   3,Si  0,O   7)          114.2351         0.606782   
    216. A(O   3,Si  0,O   4)          108.0986         0.606478   
    217. A(O   7,Si  0,O  16)          106.8350         0.612353   
    218. A(O   3,Si  0,O  16)          106.2068         0.613420   
    219. A(O   4,Si  1,O  26)          112.2496         0.604183   
    220. A(O   4,Si  1,O   6)          110.4620         0.604271   
    221. A(O   4,Si  1,O   8)          110.8295         0.603500   
    222. A(O   6,Si  1,O   8)          111.5070         0.600477   
    223. A(O   8,Si  1,O  26)          103.6152         0.600389   
    224. A(O   6,Si  1,O  26)          107.9821         0.601156   
    225. A(O   5,Si  2,O   6)          109.0334         0.606569   
    226. A(O   5,Si  2,O   9)          109.8229         0.606306   
    227. A(O   9,Si  2,O  25)          103.6281         0.606639   
    228. A(O   6,Si  2,O  25)          110.7899         0.606902   
    229. A(O   5,Si  2,O  25)          110.5509         0.610406   
    230. A(O   6,Si  2,O   9)          112.9340         0.602829   
    231. A(Si  0,O   3,H  90)          117.7425         0.436170   
    232. A(Si  0,O   4,Si  1)          148.9965         0.606219   
    233. A(Si  2,O   5,H  91)          117.7555         0.436964   
    234. A(Si  1,O   6,Si  2)          141.1380         0.602167   
    235. A(Si  0,O   7,H  92)          117.9131         0.435366   
    236. A(Si  1,O   8,H  93)          120.2033         0.433449   
    237. A(Si  2,O   9,H  94)          119.9180         0.434467   
    238. A(O  13,Si 10,O  15)          107.9529         0.606336   
    239. A(O  15,Si 10,O  18)          111.3596         0.606957   
    240. A(O  15,Si 10,O  16)          111.0160         0.608592   
    241. A(O  16,Si 10,O  18)          106.8038         0.610961   
    242. A(O  13,Si 10,O  18)          108.9532         0.608695   
    243. A(O  13,Si 10,O  16)          110.7584         0.610335   
    244. A(O  19,Si 11,O  40)          103.6069         0.606700   
    245. A(O  14,Si 11,O  40)          110.5417         0.610464   
    246. A(O  14,Si 11,O  17)          109.0199         0.606457   
    247. A(O  14,Si 11,O  19)          109.8524         0.606313   
    248. A(O  17,Si 11,O  19)          112.9554         0.602722   
    249. A(O  17,Si 11,O  40)          110.7830         0.606844   
    250. A(Si 35,Si 12,O  39)           21.2104         0.336759   
    251. A(O  17,Si 12,O  20)          111.5270         0.600242   
    252. A(O  15,Si 12,O  39)          111.9696         0.606037   
    253. A(O  20,Si 12,Si 35)           82.9804         0.336215   
    254. A(O  15,Si 12,O  20)          110.6609         0.604901   
    255. A(O  17,Si 12,O  39)          108.1102         0.601368   
    256. A(O  15,Si 12,Si 35)          124.6548         0.338726   
    257. A(O  20,Si 12,O  39)          103.7794         0.600837   
    258. A(O  17,Si 12,Si 35)          112.9678         0.336471   
    259. A(O  15,Si 12,O  17)          110.5995         0.605435   
    260. A(Si 10,O  13,H  95)          117.8584         0.436269   
    261. A(Si 11,O  14,H  96)          117.7508         0.436962   
    262. A(Si 10,O  15,Si 12)          152.4254         0.607367   
    263. A(Si  0,O  16,Si 10)          151.9545         0.615826   
    264. A(Si 11,O  17,Si 12)          140.9793         0.601817   
    265. A(Si 10,O  18,H  97)          117.3877         0.436554   
    266. A(Si 11,O  19,H  98)          119.8838         0.434469   
    267. A(Si 12,O  20,H  99)          120.1191         0.433424   
    268. A(O  25,Si 21,O  29)          109.9787         0.605651   
    269. A(O  25,Si 21,O  31)          109.0697         0.605146   
    270. A(O  25,Si 21,O  28)          110.1701         0.601383   
    271. A(O  28,Si 21,O  29)          108.4801         0.605500   
    272. A(O  28,Si 21,O  31)          111.9620         0.604995   
    273. A(O  29,Si 21,O  31)          107.1244         0.609293   
    274. A(O  26,Si 22,O  32)          110.1316         0.602196   
    275. A(Si 23,Si 22,O  32)           84.9450         0.336294   
    276. A(O  32,Si 22,O  43)          111.2077         0.604837   
    277. A(O  27,Si 22,O  43)          108.5951         0.604516   
    278. A(Si 23,Si 22,O  26)          122.2285         0.337186   
    279. A(O  26,Si 22,O  43)          109.4030         0.606697   
    280. A(O  26,Si 22,O  27)          111.2826         0.601877   
    281. A(Si 23,Si 22,O  43)          116.0524         0.338462   
    282. A(O  27,Si 22,O  32)          106.1855         0.600035   
    283. A(Si 23,Si 22,O  27)           21.3271         0.336140   
    284. A(O  27,Si 23,O  55)          109.7622         0.604704   
    285. A(Si 22,Si 23,O  27)           21.3988         0.337215   
    286. A(O  33,Si 23,O  55)          108.2422         0.598800   
    287. A(O  30,Si 23,O  33)          107.7336         0.597674   
    288. A(O  27,Si 23,O  33)          109.5607         0.598273   
    289. A(O  27,Si 23,O  30)          111.4447         0.603565   
    290. A(O  30,Si 23,O  55)          110.0203         0.604097   
    291. A(Si 22,Si 23,O  30)          121.5269         0.336923   
    292. A(Si 22,Si 23,O  33)           88.1961         0.334374   
    293. A(Si 22,Si 23,O  55)          117.5065         0.337472   
    294. A(Si 50,Si 24,O  54)           21.9425         0.336281   
    295. A(O  28,Si 24,O  30)          108.6581         0.600336   
    296. A(O  34,Si 24,Si 50)           84.6819         0.336535   
    297. A(O  30,Si 24,Si 50)          114.7929         0.336001   
    298. A(O  28,Si 24,Si 50)          125.2465         0.338661   
    299. A(O  30,Si 24,O  54)          112.2888         0.595461   
    300. A(O  34,Si 24,O  54)          105.7693         0.596555   
    301. A(O  28,Si 24,O  54)          110.0533         0.600914   
    302. A(O  30,Si 24,O  34)          108.1818         0.595982   
    303. A(O  28,Si 24,O  34)          111.8952         0.601440   
    304. A(Si  2,O  25,Si 21)          139.3238         0.606117   
    305. A(Si  1,O  26,Si 22)          137.5889         0.602555   
    306. A(Si 22,O  27,Si 23)          137.2741         0.601939   
    307. A(Si 23,O  27,H 157)          111.0638         0.246244   
    308. A(Si 22,O  27,H 157)           98.3398         0.245562   
    309. A(Si 21,O  28,Si 24)          144.8182         0.603532   
    310. A(Si 21,O  29,H 100)          117.4739         0.436918   
    311. A(Si 23,O  30,Si 24)          137.9288         0.598908   
    312. A(Si 21,O  31,H 101)          114.1655         0.434759   
    313. A(Si 22,O  32,H 102)          114.6107         0.431001   
    314. A(Si 23,O  33,H 103)          113.8634         0.427632   
    315. A(Si 24,O  34,H 104)          114.7744         0.430278   
    316. A(Si 12,Si 35,O  43)          121.0140         0.338592   
    317. A(O  39,Si 35,O  42)          110.9176         0.602621   
    318. A(O  42,Si 35,O  43)          108.6443         0.605032   
    319. A(Si 12,Si 35,O  45)           88.9089         0.336328   
    320. A(O  39,Si 35,O  43)          109.5560         0.607150   
    321. A(Si 38,Si 35,O  43)          116.1450         0.339056   
    322. A(Si 12,Si 35,Si 38)          120.5432         0.208889   
    323. A(Si 38,Si 35,O  45)           85.0983         0.336788   
    324. A(O  39,Si 35,O  45)          110.1173         0.602450   
    325. A(O  42,Si 35,O  45)          106.3825         0.600351   
    326. A(Si 38,Si 35,O  39)          121.8747         0.337888   
    327. A(O  43,Si 35,O  45)          111.1818         0.604860   
    328. A(Si 38,Si 35,O  42)           21.3710         0.336870   
    329. A(Si 12,Si 35,O  39)           21.2545         0.337426   
    330. A(Si 12,Si 35,O  42)          117.9062         0.336410   
    331. A(O  40,Si 36,O  46)          109.0603         0.605172   
    332. A(O  41,Si 36,O  46)          111.9778         0.604865   
    333. A(O  40,Si 36,O  41)          110.1650         0.601340   
    334. A(O  40,Si 36,O  49)          109.9980         0.605709   
    335. A(O  41,Si 36,O  49)          108.5122         0.605401   
    336. A(O  46,Si 36,O  49)          107.0714         0.609264   
    337. A(O  41,Si 37,O  44)          108.2040         0.601636   
    338. A(O  41,Si 37,O  47)          112.0942         0.602176   
    339. A(O  47,Si 37,Si 65)           84.5965         0.336803   
    340. A(O  44,Si 37,O  47)          108.3485         0.596858   
    341. A(O  41,Si 37,O  69)          110.1589         0.601810   
    342. A(O  47,Si 37,O  69)          105.7112         0.597030   
    343. A(Si 65,Si 37,O  69)           21.9559         0.336627   
    344. A(O  41,Si 37,Si 65)          125.3897         0.339135   
    345. A(O  44,Si 37,Si 65)          114.9798         0.336543   
    346. A(O  44,Si 37,O  69)          112.3524         0.596496   
    347. A(O  48,Si 38,O  68)          108.5429         0.600295   
    348. A(O  42,Si 38,O  68)          109.5397         0.606258   
    349. A(O  44,Si 38,O  68)          109.5924         0.605853   
    350. A(Si 35,Si 38,O  42)           21.4419         0.337935   
    351. A(Si 35,Si 38,O  44)          122.2191         0.337740   
    352. A(O  42,Si 38,O  44)          111.6377         0.604519   
    353. A(Si 35,Si 38,O  48)           88.2627         0.335065   
    354. A(Si 35,Si 38,O  68)          116.9914         0.338578   
    355. A(O  42,Si 38,O  48)          109.6419         0.598976   
    356. A(O  44,Si 38,O  48)          107.8210         0.598577   
    357. A(Si 12,O  39,Si 35)          137.5351         0.603345   
    358. A(Si 11,O  40,Si 36)          139.4296         0.606229   
    359. A(Si 36,O  41,Si 37)          144.5690         0.604011   
    360. A(Si 35,O  42,Si 38)          137.1871         0.602717   
    361. A(Si 22,O  43,Si 35)          147.5688         0.609471   
    362. A(Si 38,O  44,H 161)          108.1330         0.244728   
    363. A(Si 37,O  44,H 161)          102.6009         0.243546   
    364. A(Si 37,O  44,Si 38)          137.5988         0.600205   
    365. A(Si 35,O  45,H 105)          114.5510         0.430923   
    366. A(Si 36,O  46,H 106)          114.1705         0.434759   
    367. A(Si 37,O  47,H 107)          114.7839         0.430347   
    368. A(Si 38,O  48,H 108)          113.9056         0.427913   
    369. A(Si 36,O  49,H 109)          117.4805         0.436916   
    370. A(Si 24,Si 50,O  57)          115.1543         0.339024   
    371. A(O  54,Si 50,O  57)          110.4723         0.603944   
    372. A(Si 24,Si 50,O  58)          123.3058         0.339674   
    373. A(Si 53,Si 50,O  58)          110.9460         0.339105   
    374. A(O  54,Si 50,O  58)          109.7600         0.605282   
    375. A(O  57,Si 50,O  58)          109.9507         0.608693   
    376. A(Si 24,Si 50,O  60)           88.5633         0.337818   
    377. A(Si 53,Si 50,O  60)           89.1204         0.337253   
    378. A(O  54,Si 50,O  60)          109.9972         0.601460   
    379. A(O  57,Si 50,O  60)          109.0958         0.604845   
    380. A(O  58,Si 50,O  60)          107.5117         0.606186   
    381. A(Si 24,Si 50,Si 53)          123.6227         0.209325   
    382. A(Si 53,Si 50,O  57)           21.2834         0.338457   
    383. A(Si 24,Si 50,O  54)           22.0180         0.337383   
    384. A(Si 53,Si 50,O  54)          126.4449         0.336819   
    385. A(O  55,Si 51,O  56)          109.1625         0.602371   
    386. A(O  55,Si 51,O  61)          109.5499         0.600366   
    387. A(O  56,Si 51,O  61)          107.3052         0.601858   
    388. A(O  61,Si 51,O  72)          110.0669         0.601104   
    389. A(O  61,Si 51,H 155)          169.6780         0.270448   
    390. A(O  55,Si 51,H 155)           80.3017         0.270630   
    391. A(O  55,Si 51,O  72)          110.6761         0.601616   
    392. A(O  56,Si 51,H 155)           71.0927         0.271160   
    393. A(O  72,Si 51,H 155)           62.2263         0.270892   
    394. A(O  56,Si 51,O  72)          110.0117         0.603112   
    395. A(O  56,Si 52,O  59)          111.9277         0.594313   
    396. A(O  56,Si 52,O  62)          108.9473         0.599863   
    397. A(O  59,Si 52,O  62)          109.8020         0.599590   
    398. A(O  56,Si 52,O  81)          106.9714         0.600483   
    399. A(O  59,Si 52,O  81)          109.9986         0.600209   
    400. A(O  62,Si 52,O  81)          109.1174         0.605824   
    401. A(Si 50,Si 53,O  57)           21.1841         0.336953   
    402. A(Si 50,Si 53,O  59)          121.7284         0.337477   
    403. A(O  57,Si 53,O  59)          110.2174         0.602199   
    404. A(Si 50,Si 53,O  63)           87.5590         0.338529   
    405. A(O  57,Si 53,O  63)          108.7264         0.604372   
    406. A(O  59,Si 53,O  63)          113.1453         0.605460   
    407. A(Si 50,Si 53,O  80)          117.9334         0.338841   
    408. A(O  57,Si 53,O  80)          110.6756         0.605017   
    409. A(O  59,Si 53,O  80)          107.4891         0.606106   
    410. A(O  63,Si 53,O  80)          106.5293         0.608296   
    411. A(Si 24,O  54,Si 50)          136.0395         0.598294   
    412. A(Si 23,O  55,Si 51)          139.6719         0.603053   
    413. A(Si 51,O  56,Si 52)          137.9064         0.599205   
    414. A(Si 51,O  56,H 155)           68.4134         0.195757   
    415. A(Si 52,O  56,H 155)          148.3386         0.194790   
    416. A(Si 50,O  57,Si 53)          137.5326         0.604222   
    417. A(Si 50,O  58,H 110)          117.7845         0.436929   
    418. A(Si 52,O  59,Si 53)          143.0056         0.598641   
    419. A(Si 50,O  60,H 111)          113.7740         0.431647   
    420. A(Si 51,O  61,H 112)          115.8060         0.431812   
    421. A(Si 52,O  62,H 113)          114.4666         0.433253   
    422. A(Si 53,O  63,H 114)          114.7763         0.434569   
    423. A(O  68,Si 64,O  71)          108.3434         0.603757   
    424. A(O  71,Si 64,O  72)          110.9354         0.603299   
    425. A(O  68,Si 64,O  72)          109.8995         0.603107   
    426. A(O  68,Si 64,O  74)          110.2928         0.602666   
    427. A(O  71,Si 64,O  74)          106.9138         0.602858   
    428. A(O  72,Si 64,O  74)          110.3958         0.602209   
    429. A(O  69,Si 65,O  70)          110.4630         0.603865   
    430. A(Si 37,Si 65,O  69)           22.0216         0.337586   
    431. A(Si 66,Si 65,O  69)          126.3749         0.336539   
    432. A(Si 37,Si 65,O  70)          115.2338         0.339168   
    433. A(Si 66,Si 65,O  70)           21.1686         0.338114   
    434. A(Si 37,Si 65,O  75)           88.5869         0.338063   
    435. A(Si 66,Si 65,O  75)           89.1558         0.337014   
    436. A(O  69,Si 65,O  75)          110.0502         0.601592   
    437. A(O  70,Si 65,O  75)          109.0145         0.604853   
    438. A(Si 37,Si 65,O  78)          123.2686         0.339887   
    439. A(Si 66,Si 65,O  78)          110.8948         0.338830   
    440. A(O  69,Si 65,O  78)          109.7942         0.605345   
    441. A(O  70,Si 65,O  78)          109.9304         0.608630   
    442. A(Si 37,Si 65,Si 66)          123.6908         0.209277   
    443. A(O  75,Si 65,O  78)          107.5357         0.606336   
    444. A(Si 65,Si 66,O  70)           21.0874         0.336879   
    445. A(Si 65,Si 66,O  73)          121.7050         0.336813   
    446. A(O  70,Si 66,O  73)          110.1797         0.601879   
    447. A(Si 65,Si 66,O  76)           87.6884         0.338282   
    448. A(O  70,Si 66,O  76)          108.7494         0.604919   
    449. A(O  73,Si 66,O  76)          112.8102         0.604782   
    450. A(Si 65,Si 66,O  86)          117.9098         0.338720   
    451. A(O  70,Si 66,O  86)          110.7931         0.605825   
    452. A(O  73,Si 66,O  86)          107.5511         0.605688   
    453. A(O  76,Si 66,O  86)          106.7124         0.608751   
    454. A(O  71,Si 67,O  73)          110.1549         0.601668   
    455. A(O  71,Si 67,O  77)          108.4679         0.600090   
    456. A(O  73,Si 67,O  77)          111.1137         0.598232   
    457. A(O  71,Si 67,O  85)          110.2548         0.602619   
    458. A(O  73,Si 67,O  85)          110.0633         0.600751   
    459. A(O  77,Si 67,O  85)          106.7199         0.599176   
    460. A(Si 38,O  68,Si 64)          140.0698         0.605576   
    461. A(Si 38,O  68,H 151)          111.6838         0.201862   
    462. A(Si 64,O  68,H 151)           98.7836         0.201422   
    463. A(Si 37,O  69,Si 65)          136.0225         0.598636   
    464. A(Si 65,O  70,Si 66)          137.7440         0.604571   
    465. A(Si 65,O  70,H 160)          103.9090         0.241304   
    466. A(Si 66,O  70,H 160)          106.5505         0.240549   
    467. A(Si 64,O  71,Si 67)          141.4056         0.603744   
    468. A(Si 51,O  72,H 155)           75.2392         0.219043   
    469. A(Si 64,O  72,H 155)          135.2226         0.219080   
    470. A(Si 51,O  72,Si 64)          149.1782         0.602503   
    471. A(Si 66,O  73,H 159)          117.9726         0.241351   
    472. A(Si 67,O  73,H 159)           93.3639         0.241063   
    473. A(Si 66,O  73,Si 67)          142.5123         0.600772   
    474. A(Si 64,O  74,H 115)          115.9428         0.432700   
    475. A(Si 65,O  75,H 116)          113.7931         0.431708   
    476. A(Si 66,O  76,H 117)          114.7867         0.434611   
    477. A(Si 67,O  77,H 118)          115.1751         0.430782   
    478. A(Si 65,O  78,H 119)          117.8015         0.436952   
    479. A(O  81,Si 79,O  82)          111.1893         0.608144   
    480. A(O  81,Si 79,O  83)          109.7020         0.605786   
    481. A(O  82,Si 79,O  83)          109.0474         0.607226   
    482. A(O  81,Si 79,O  88)          110.7664         0.606841   
    483. A(O  82,Si 79,O  88)          103.6804         0.608284   
    484. A(O  83,Si 79,O  88)          112.3317         0.605925   
    485. A(Si 53,O  80,H 120)          117.2906         0.436677   
    486. A(Si 52,O  81,Si 79)          147.1182         0.606577   
    487. A(Si 79,O  82,H 121)          117.0969         0.436738   
    488. A(Si 79,O  83,H 122)          116.9751         0.434920   
    489. A(O  85,Si 84,O  87)          110.2869         0.602529   
    490. A(O  85,Si 84,O  88)          110.3078         0.602968   
    491. A(O  87,Si 84,O  88)          108.2276         0.607412   
    492. A(O  85,Si 84,O  89)          108.9617         0.603047   
    493. A(O  87,Si 84,O  89)          108.0485         0.607492   
    494. A(O  88,Si 84,O  89)          110.9799         0.607935   
    495. A(Si 67,O  85,Si 84)          137.2525         0.599910   
    496. A(Si 66,O  86,H 123)          117.4460         0.436913   
    497. A(Si 84,O  87,H 124)          117.6053         0.435877   
    498. A(Si 79,O  88,Si 84)          142.4446         0.607418   
    499. A(Si 84,O  89,H 125)          113.7853         0.434007   
    500. A(O 130,P 126,O 131)          109.1532         0.589537   
    501. A(O 130,P 126,O 132)          107.2199         0.549964   
    502. A(O 131,P 126,O 132)          108.5740         0.588305   
    503. A(O 130,P 126,O 134)          109.3737         0.589462   
    504. A(O 131,P 126,O 134)          111.7190         0.631088   
    505. A(O 132,P 126,O 134)          110.6839         0.588230   
    506. A(C 142,O 127,C 143)          107.9269         0.392932   
    507. A(C 140,O 128,H 156)          108.6077         0.354428   
    508. A(C 141,O 129,H 157)          113.6482         0.353807   
    509. A(P 126,O 130,C 144)          112.5290         0.475545   
    510. A(P 126,O 132,H 162)          116.7255         0.411214   
    511. A(C 142,N 135,C 145)          126.7786         0.392378   
    512. A(C 142,N 135,C 146)          121.3702         0.391311   
    513. A(C 145,N 135,C 146)          106.1340         0.415601   
    514. A(C 146,N 136,C 147)          106.7538         0.447717   
    515. A(C 145,N 137,C 149)          114.6785         0.444862   
    516. A(C 148,N 138,C 149)          123.9536         0.417435   
    517. A(C 148,N 138,H 159)          117.2880         0.353408   
    518. A(C 149,N 138,H 159)          115.9474         0.351887   
    519. A(C 149,N 139,H 160)          123.4051         0.355766   
    520. A(C 149,N 139,H 161)          121.8301         0.355880   
    521. A(H 160,N 139,H 161)          111.1802         0.301750   
    522. A(O 128,C 140,C 141)          110.8101         0.375221   
    523. A(O 128,C 140,C 142)          111.4074         0.377133   
    524. A(C 141,C 140,C 142)          104.0056         0.352062   
    525. A(O 128,C 140,H 150)          106.1189         0.339021   
    526. A(C 141,C 140,H 150)          113.4616         0.317267   
    527. A(C 142,C 140,H 150)          111.1659         0.318791   
    528. A(O 129,C 141,C 140)          107.4855         0.375438   
    529. A(O 129,C 141,C 143)          111.3942         0.375707   
    530. A(C 140,C 141,C 143)          103.9011         0.350562   
    531. A(O 129,C 141,H 151)          109.2322         0.338420   
    532. A(C 140,C 141,H 151)          112.0803         0.316545   
    533. A(C 143,C 141,H 151)          112.5683         0.316759   
    534. A(O 127,C 142,N 135)          108.5853         0.380699   
    535. A(O 127,C 142,C 140)          106.6987         0.372269   
    536. A(N 135,C 142,C 140)          113.3153         0.361700   
    537. A(O 127,C 142,H 152)          107.9222         0.334811   
    538. A(N 135,C 142,H 152)          109.7840         0.325639   
    539. A(C 140,C 142,H 152)          110.3391         0.318801   
    540. A(O 127,C 143,C 141)          105.9123         0.371516   
    541. A(O 127,C 143,C 144)          109.1747         0.375875   
    542. A(C 141,C 143,C 144)          114.5929         0.354847   
    543. A(O 127,C 143,H 153)          106.2267         0.335130   
    544. A(C 141,C 143,H 153)          110.4561         0.317088   
    545. A(C 144,C 143,H 153)          110.0609         0.320608   
    546. A(O 130,C 144,C 143)          110.3858         0.384442   
    547. A(O 130,C 144,H 154)          107.2999         0.342431   
    548. A(C 143,C 144,H 154)          110.2138         0.320564   
    549. A(O 130,C 144,H 155)          107.9189         0.342442   
    550. A(C 143,C 144,H 155)          113.0041         0.320574   
    551. A(H 154,C 144,H 155)          107.8111         0.287645   
    552. A(N 135,C 145,N 137)          129.1055         0.424608   
    553. A(N 135,C 145,C 147)          105.1236         0.423991   
    554. A(N 137,C 145,C 147)          125.2675         0.432018   
    555. A(N 135,C 146,N 136)          111.7055         0.437920   
    556. A(N 135,C 146,H 158)          124.1533         0.346949   
    557. A(N 136,C 146,H 158)          123.1646         0.365548   
    558. A(N 136,C 147,C 145)          110.2627         0.432186   
    559. A(N 136,C 147,C 148)          129.2321         0.421866   
    560. A(C 145,C 147,C 148)          119.1885         0.421091   
    561. A(O 133,C 148,N 138)          124.8298         0.464259   
    562. A(O 133,C 148,C 147)          122.4988         0.459554   
    563. A(N 138,C 148,C 147)          112.4926         0.415194   
    564. A(N 137,C 149,N 138)          123.6524         0.435893   
    565. A(N 137,C 149,N 139)          119.1399         0.440165   
    566. A(N 138,C 149,N 139)          117.1020         0.419568   
    567. A(O  68,H 151,C 141)          154.7929         0.158762   
    568. A(O  72,H 155,C 144)          133.8166         0.169896   
    569. A(Si 51,H 155,C 144)          162.8594         0.202149   
    570. A(Si 51,H 155,O  72)           42.5344         0.135077   
    571. A(O  56,H 155,C 144)          152.5894         0.155313   
    572. A(O  56,H 155,O  72)           72.4397         0.116004   
    573. A(Si 51,H 155,O  56)           40.4939         0.126770   
    574. A(O  27,H 157,O 129)          167.3219         0.192533   
    575. A(O  73,H 159,N 138)          163.6582         0.186880   
    576. A(O  70,H 160,N 139)          170.9397         0.186573   
    577. A(O  44,H 161,N 139)          164.3252         0.189102   
    578. D(H  90,O   3,Si  0,O   4)    -43.3164         0.015519   
    579. D(H  90,O   3,Si  0,O   7)     79.5094         0.015519   
    580. D(Si  1,O   4,Si  0,O   7)     28.8203         0.013108   
    581. D(Si  0,O   4,Si  1,O   6)   -135.8008         0.013342   
    582. D(Si  1,O   4,Si  0,O   3)    154.1794         0.013108   
    583. D(Si  0,O   4,Si  1,O   8)    -11.7017         0.013342   
    584. D(H  91,O   5,Si  2,O   6)    -22.5473         0.013642   
    585. D(H  91,O   5,Si  2,O   9)   -146.7779         0.013642   
    586. D(Si  2,O   6,Si  1,O   4)    103.0091         0.012702   
    587. D(Si  1,O   6,Si  2,O   5)   -100.8198         0.012894   
    588. D(Si  1,O   6,Si  2,O   9)     21.5566         0.012894   
    589. D(Si  2,O   6,Si  1,O   8)    -20.6995         0.012702   
    590. D(H  92,O   7,Si  0,O   3)    -60.0311         0.013172   
    591. D(H  92,O   7,Si  0,O   4)     61.7450         0.013172   
    592. D(H  93,O   8,Si  1,O   4)    -43.9598         0.013560   
    593. D(H  93,O   8,Si  1,O   6)     79.5406         0.013560   
    594. D(H  94,O   9,Si  2,O   5)     53.9409         0.013881   
    595. D(H  94,O   9,Si  2,O   6)    -67.9927         0.013881   
    596. D(H  95,O  13,Si 10,O  15)    -43.9722         0.013424   
    597. D(H  95,O  13,Si 10,O  16)     77.7611         0.013424   
    598. D(H  96,O  14,Si 11,O  17)     22.0094         0.013643   
    599. D(H  96,O  14,Si 11,O  19)    146.2774         0.013643   
    600. D(Si 12,O  15,Si 10,O  13)   -153.6596         0.013053   
    601. D(Si 10,O  15,Si 12,O  17)    135.5714         0.014766   
    602. D(Si 10,O  15,Si 12,O  20)     11.4684         0.014766   
    603. D(Si 12,O  15,Si 10,O  16)     84.7665         0.013053   
    604. D(Si  0,O  16,Si 10,O  15)   -141.6463         0.013924   
    605. D(Si  0,O  16,Si 10,O  13)     98.4369         0.013924   
    606. D(Si 10,O  16,Si  0,O   4)    147.5131         0.014665   
    607. D(Si 10,O  16,Si  0,O   3)    -94.9971         0.014665   
    608. D(Si 11,O  17,Si 12,O  15)   -103.1205         0.013678   
    609. D(Si 12,O  17,Si 11,O  14)    100.5777         0.012870   
    610. D(Si 12,O  17,Si 11,O  19)    -21.8415         0.012870   
    611. D(Si 11,O  17,Si 12,O  20)     20.4844         0.013678   
    612. D(H  97,O  18,Si 10,O  13)     58.7616         0.013560   
    613. D(H  97,O  18,Si 10,O  15)    -60.2014         0.013560   
    614. D(H  98,O  19,Si 11,O  14)    -53.5032         0.013882   
    615. D(H  98,O  19,Si 11,O  17)     68.4492         0.013882   
    616. D(H  99,O  20,Si 12,O  15)     44.1958         0.014514   
    617. D(H  99,O  20,Si 12,O  17)    -79.3743         0.014514   
    618. D(O  27,Si 23,Si 22,O  26)    -64.2195         0.010000   
    619. D(O  27,Si 23,Si 22,O  32)   -174.8712         0.010000   
    620. D(O  30,Si 23,Si 22,O  26)      2.8344         0.010000   
    621. D(Si 21,O  25,Si  2,O   5)    133.3244         0.013716   
    622. D(Si 21,O  25,Si  2,O   6)   -105.6865         0.013716   
    623. D(Si  2,O  25,Si 21,O  28)     98.4402         0.012732   
    624. D(Si  2,O  25,Si 21,O  29)   -142.0315         0.012732   
    625. D(Si 22,O  26,Si  1,O   4)   -130.8400         0.012684   
    626. D(Si 22,O  26,Si  1,O   6)    107.1619         0.012684   
    627. D(Si  1,O  26,Si 22,Si 23)    -93.8781         0.014050   
    628. D(Si  1,O  26,Si 22,O  27)   -114.4549         0.014050   
    629. D(Si 23,O  27,Si 22,O  26)    125.1666         0.014514   
    630. D(Si 23,O  27,Si 22,O  32)      5.3202         0.014514   
    631. D(H 157,O  27,Si 22,Si 23)    133.9552         0.014514   
    632. D(Si 22,O  27,Si 23,O  30)   -122.5067         0.015058   
    633. D(Si 22,O  27,Si 23,O  33)     -3.3726         0.015058   
    634. D(H 157,O  27,Si 23,Si 22)   -130.2466         0.015058   
    635. D(Si 24,O  28,Si 21,O  25)   -134.5539         0.012701   
    636. D(Si 24,O  28,Si 21,O  29)    105.0117         0.012701   
    637. D(Si 21,O  28,Si 24,O  30)    140.0232         0.014257   
    638. D(Si 21,O  28,Si 24,O  34)     20.6397         0.014257   
    639. D(H 100,O  29,Si 21,O  25)    -92.0846         0.013613   
    640. D(H 100,O  29,Si 21,O  28)     28.4685         0.013613   
    641. D(Si 24,O  30,Si 23,Si 22)     90.7167         0.013925   
    642. D(Si 24,O  30,Si 23,O  27)    111.8769         0.013925   
    643. D(Si 23,O  30,Si 24,O  28)   -108.0033         0.013033   
    644. D(Si 23,O  30,Si 24,O  34)     13.6770         0.013033   
    645. D(H 101,O  31,Si 21,O  25)     16.5114         0.013501   
    646. D(H 101,O  31,Si 21,O  28)   -105.6818         0.013501   
    647. D(H 102,O  32,Si 22,Si 23)    130.8425         0.014591   
    648. D(H 102,O  32,Si 22,O  26)      8.3091         0.014591   
    649. D(H 103,O  33,Si 23,Si 22)     -0.4888         0.014509   
    650. D(H 103,O  33,Si 23,O  27)      0.7417         0.014509   
    651. D(H 104,O  34,Si 24,O  28)    104.7086         0.014200   
    652. D(H 104,O  34,Si 24,O  30)    -14.9549         0.014200   
    653. D(Si 38,Si 35,Si 12,O  17)    -19.1859         0.010000   
    654. D(O  39,Si 35,Si 12,O  15)    -58.3882         0.010000   
    655. D(Si 38,Si 35,Si 12,O  15)   -158.4306         0.010000   
    656. D(O  42,Si 38,Si 35,Si 12)     89.0470         0.010000   
    657. D(O  42,Si 38,Si 35,O  39)     64.1907         0.010000   
    658. D(O  44,Si 38,Si 35,Si 12)     23.3985         0.010000   
    659. D(Si 35,O  39,Si 12,O  15)    130.9405         0.013812   
    660. D(Si 35,O  39,Si 12,O  17)   -106.9803         0.013812   
    661. D(Si 12,O  39,Si 35,Si 38)     92.9874         0.015127   
    662. D(Si 12,O  39,Si 35,O  42)    113.5482         0.015127   
    663. D(Si 36,O  40,Si 11,O  14)   -133.2105         0.013729   
    664. D(Si 36,O  40,Si 11,O  17)    105.8281         0.013729   
    665. D(Si 11,O  40,Si 36,O  41)    -98.2022         0.012744   
    666. D(Si 11,O  40,Si 36,O  46)     25.0751         0.012744   
    667. D(Si 37,O  41,Si 36,O  40)    134.6295         0.012681   
    668. D(Si 37,O  41,Si 36,O  46)     13.0719         0.012681   
    669. D(Si 36,O  41,Si 37,O  44)   -139.9690         0.014393   
    670. D(Si 36,O  41,Si 37,O  47)    -20.5533         0.014393   
    671. D(Si 38,O  42,Si 35,Si 12)   -102.9823         0.014611   
    672. D(Si 38,O  42,Si 35,O  39)   -125.0716         0.014611   
    673. D(Si 35,O  42,Si 38,O  44)    123.9858         0.014151   
    674. D(Si 35,O  42,Si 38,O  48)      4.5684         0.014151   
    675. D(Si 35,O  43,Si 22,Si 23)    106.8326         0.014672   
    676. D(Si 35,O  43,Si 22,O  26)   -109.8899         0.014672   
    677. D(Si 22,O  43,Si 35,Si 12)     90.5258         0.015743   
    678. D(Si 22,O  43,Si 35,Si 38)   -106.6024         0.015743   
    679. D(Si 38,O  44,Si 37,O  41)    107.6278         0.014112   
    680. D(Si 38,O  44,Si 37,O  47)    -14.1230         0.014112   
    681. D(H 161,O  44,Si 37,O  41)   -116.5050         0.014112   
    682. D(Si 37,O  44,Si 38,Si 35)    -91.6821         0.015051   
    683. D(Si 37,O  44,Si 38,O  42)   -112.6769         0.015051   
    684. D(H 161,O  44,Si 38,Si 35)    133.9663         0.015051   
    685. D(H 105,O  45,Si 35,Si 12)     -9.2117         0.015477   
    686. D(H 105,O  45,Si 35,Si 38)   -129.9941         0.015477   
    687. D(H 106,O  46,Si 36,O  40)    -16.7710         0.013495   
    688. D(H 106,O  46,Si 36,O  41)    105.4197         0.013495   
    689. D(H 107,O  47,Si 37,O  41)   -103.2181         0.014238   
    690. D(H 107,O  47,Si 37,O  44)     16.1129         0.014238   
    691. D(H 108,O  48,Si 38,Si 35)     -0.0547         0.014589   
    692. D(H 108,O  48,Si 38,O  42)     -1.7240         0.014589   
    693. D(H 109,O  49,Si 36,O  40)     91.6898         0.013613   
    694. D(H 109,O  49,Si 36,O  41)    -28.8886         0.013613   
    695. D(Si 53,Si 50,Si 24,O  28)   -155.9007         0.010000   
    696. D(Si 53,Si 50,Si 24,O  30)    -16.6203         0.010000   
    697. D(O  54,Si 50,Si 24,O  28)    -50.9168         0.010000   
    698. D(O  57,Si 53,Si 50,Si 24)     72.4982         0.010000   
    699. D(O  57,Si 53,Si 50,O  54)     45.7419         0.010000   
    700. D(O  59,Si 53,Si 50,Si 24)     10.5986         0.010000   
    701. D(Si 50,O  54,Si 24,O  28)    137.5580         0.013156   
    702. D(Si 50,O  54,Si 24,O  30)   -101.2645         0.013156   
    703. D(Si 24,O  54,Si 50,Si 53)     90.5697         0.014616   
    704. D(Si 24,O  54,Si 50,O  57)    106.6804         0.014616   
[...]
 79 Si    13.1780    14.0000     0.8220     4.4952     4.4952    -0.0000
 80 O      8.6768     8.0000    -0.6768     2.0765     2.0765    -0.0000
 81 O      8.1757     8.0000    -0.1757     3.0445     3.0445    -0.0000
 82 O      8.6664     8.0000    -0.6664     2.0841     2.0841    -0.0000
 83 O      8.6282     8.0000    -0.6282     2.0732     2.0732    -0.0000
 84 Si    13.1269    14.0000     0.8731     4.4584     4.4584    -0.0000
 85 O      8.3651     8.0000    -0.3651     3.1295     3.1295    -0.0000
 86 O      8.6691     8.0000    -0.6691     2.1337     2.1337    -0.0000
 87 O      8.6403     8.0000    -0.6403     2.0934     2.0934    -0.0000
 88 O      8.1749     8.0000    -0.1749     2.5146     2.5146     0.0000
 89 O      8.6752     8.0000    -0.6752     2.1115     2.1115     0.0000
 90 H      0.6127     1.0000     0.3873     0.8653     0.8653    -0.0000
 91 H      0.6096     1.0000     0.3904     0.8666     0.8666     0.0000
 92 H      0.6058     1.0000     0.3942     0.8580     0.8580    -0.0000
 93 H      0.5929     1.0000     0.4071     0.8595     0.8595    -0.0000
 94 H      0.6066     1.0000     0.3934     0.8740     0.8740    -0.0000
 95 H      0.6118     1.0000     0.3882     0.8676     0.8676    -0.0000
 96 H      0.6097     1.0000     0.3903     0.8669     0.8669    -0.0000
 97 H      0.6111     1.0000     0.3889     0.8675     0.8675    -0.0000
 98 H      0.6064     1.0000     0.3936     0.8739     0.8739    -0.0000
 99 H      0.5900     1.0000     0.4100     0.8546     0.8546    -0.0000
100 H      0.6108     1.0000     0.3892     0.8664     0.8664     0.0000
101 H      0.6019     1.0000     0.3981     0.8551     0.8551    -0.0000
102 H      0.5701     1.0000     0.4299     0.8320     0.8320    -0.0000
103 H      0.5719     1.0000     0.4281     0.8392     0.8392    -0.0000
104 H      0.6021     1.0000     0.3979     0.8728     0.8728    -0.0000
105 H      0.5693     1.0000     0.4307     0.8303     0.8303     0.0000
106 H      0.6024     1.0000     0.3976     0.8569     0.8569    -0.0000
107 H      0.6016     1.0000     0.3984     0.8783     0.8783    -0.0000
108 H      0.5733     1.0000     0.4267     0.8428     0.8428    -0.0000
109 H      0.6098     1.0000     0.3902     0.8647     0.8647    -0.0000
110 H      0.6125     1.0000     0.3875     0.8684     0.8684     0.0000
111 H      0.6078     1.0000     0.3922     0.8754     0.8754    -0.0000
112 H      0.6071     1.0000     0.3929     0.8869     0.8869     0.0000
113 H      0.6116     1.0000     0.3884     0.8774     0.8774     0.0000
114 H      0.6166     1.0000     0.3834     0.8730     0.8730     0.0000
115 H      0.5989     1.0000     0.4011     0.8732     0.8732    -0.0000
116 H      0.6150     1.0000     0.3850     0.8927     0.8927    -0.0000
117 H      0.6137     1.0000     0.3863     0.8743     0.8743    -0.0000
118 H      0.6032     1.0000     0.3968     0.8807     0.8807    -0.0000
119 H      0.6096     1.0000     0.3904     0.8663     0.8663    -0.0000
120 H      0.6137     1.0000     0.3863     0.8703     0.8703    -0.0000
121 H      0.6163     1.0000     0.3837     0.8714     0.8714    -0.0000
122 H      0.6112     1.0000     0.3888     0.8630     0.8630     0.0000
123 H      0.6102     1.0000     0.3898     0.8682     0.8682    -0.0000
124 H      0.6141     1.0000     0.3859     0.8714     0.8714    -0.0000
125 H      0.6138     1.0000     0.3862     0.8759     0.8759    -0.0000
126 P     13.6591    15.0000     1.3409     4.9864     4.9864     0.0000
127 O      8.2844     8.0000    -0.2844     1.6400     1.6400     0.0000
128 O      8.5528     8.0000    -0.5528     1.8471     1.8471    -0.0000
129 O      8.5163     8.0000    -0.5163     1.7919     1.7919    -0.0000
130 O      8.3734     8.0000    -0.3734     2.1139     2.1139    -0.0000
131 O      8.7833     8.0000    -0.7833     1.3765     1.3765    -0.0000
132 O      8.6308     8.0000    -0.6308     1.8828     1.8828    -0.0000
133 O      8.5121     8.0000    -0.5121     1.8367     1.8367    -0.0000
134 O      8.9718     8.0000    -0.9718     1.5183     1.5183     0.0000
135 N      7.3811     7.0000    -0.3811     3.5872     3.5872    -0.0000
136 N      7.1841     7.0000    -0.1841     2.3101     2.3101    -0.0000
137 N      7.2990     7.0000    -0.2990     2.8331     2.8331    -0.0000
138 N      7.3885     7.0000    -0.3885     3.2070     3.2070     0.0000
139 N      7.5755     7.0000    -0.5755     2.8618     2.8618    -0.0000
140 C      5.7250     6.0000     0.2750     3.1709     3.1709     0.0000
141 C      6.6155     6.0000    -0.6155     4.4503     4.4503     0.0000
142 C      5.5831     6.0000     0.4169     4.4341     4.4341     0.0000
143 C      5.6538     6.0000     0.3462     3.9572     3.9572     0.0000
144 C      6.8459     6.0000    -0.8459     5.2491     5.2491     0.0000
145 C      6.5010     6.0000    -0.5010     4.4330     4.4330    -0.0000
146 C      5.5459     6.0000     0.4541     3.6278     3.6278     0.0000
147 C      6.4187     6.0000    -0.4187     3.7513     3.7513    -0.0000
148 C      5.5336     6.0000     0.4664     3.8855     3.8855    -0.0000
149 C      5.6828     6.0000     0.3172     4.1095     4.1095     0.0000
150 H      0.7936     1.0000     0.2064     0.9528     0.9528    -0.0000
151 H      0.9162     1.0000     0.0838     0.9810     0.9810    -0.0000
152 H      0.8210     1.0000     0.1790     0.9432     0.9432     0.0000
153 H      0.8058     1.0000     0.1942     0.9176     0.9176     0.0000
154 H      0.8902     1.0000     0.1098     0.8913     0.8913    -0.0000
155 H      0.9285     1.0000     0.0715     0.9697     0.9697    -0.0000
156 H      0.6253     1.0000     0.3747     0.8876     0.8876    -0.0000
157 H      0.7369     1.0000     0.2631     1.0432     1.0432     0.0000
158 H      0.7920     1.0000     0.2080     0.9455     0.9455     0.0000
159 H      0.7203     1.0000     0.2797     0.9212     0.9212     0.0000
160 H      0.7106     1.0000     0.2894     0.9326     0.9326     0.0000
161 H      0.7295     1.0000     0.2705     0.9762     0.9762    -0.0000
162 H      0.6443     1.0000     0.3557     0.9380     0.9380    -0.0000

  Mayer bond orders larger than 0.100000
B(  0-Si,  3-O ) :   1.0759 B(  0-Si,  4-O ) :   1.1544 B(  0-Si,  7-O ) :   1.1103 
B(  0-Si, 16-O ) :   1.0785 B(  1-Si,  4-O ) :   0.9080 B(  1-Si,  6-O ) :   0.8535 
B(  1-Si,  8-O ) :   0.8974 B(  1-Si, 26-O ) :   1.2124 B(  2-Si,  5-O ) :   1.0436 
B(  2-Si,  6-O ) :   1.1829 B(  2-Si,  9-O ) :   1.0108 B(  2-Si, 25-O ) :   1.0831 
B(  3-O ,  4-O ) :   0.1421 B(  3-O , 90-H ) :   0.8344 B(  4-O ,  6-O ) :   0.2220 
B(  4-O ,  7-O ) :   0.1594 B(  4-O ,  8-O ) :   0.1847 B(  4-O , 26-O ) :   0.1444 
B(  5-O ,  6-O ) :   0.1037 B(  5-O , 91-H ) :   0.8336 B(  6-O ,  8-O ) :   0.1794 
B(  6-O ,  9-O ) :   0.1487 B(  6-O , 26-O ) :   0.1265 B(  7-O , 92-H ) :   0.8373 
B(  8-O , 22-Si) :  -0.1648 B(  8-O , 93-H ) :   0.8361 B(  9-O , 94-H ) :   0.8401 
B( 10-Si, 13-O ) :   1.0716 B( 10-Si, 15-O ) :   1.1217 B( 10-Si, 16-O ) :   1.0417 
B( 10-Si, 18-O ) :   1.1354 B( 11-Si, 14-O ) :   1.0352 B( 11-Si, 17-O ) :   1.1828 
B( 11-Si, 19-O ) :   1.0082 B( 11-Si, 40-O ) :   1.0800 B( 12-Si, 15-O ) :   0.9084 
B( 12-Si, 17-O ) :   0.8359 B( 12-Si, 19-O ) :  -0.1027 B( 12-Si, 20-O ) :   0.8726 
B( 12-Si, 39-O ) :   1.2231 B( 13-O , 95-H ) :   0.8340 B( 14-O , 17-O ) :   0.1052 
B( 14-O , 96-H ) :   0.8333 B( 15-O , 17-O ) :   0.2468 B( 15-O , 18-O ) :   0.1722 
B( 15-O , 20-O ) :   0.1910 B( 15-O , 39-O ) :   0.1376 B( 17-O , 19-O ) :   0.1516 
B( 17-O , 20-O ) :   0.1854 B( 17-O , 39-O ) :   0.1038 B( 18-O , 97-H ) :   0.8370 
B( 19-O , 98-H ) :   0.8398 B( 20-O , 35-Si) :  -0.1423 B( 20-O , 39-O ) :   0.1004 
B( 20-O , 99-H ) :   0.8368 B( 21-Si, 25-O ) :   1.0309 B( 21-Si, 28-O ) :   1.1716 
B( 21-Si, 29-O ) :   1.0325 B( 21-Si, 31-O ) :   1.1121 B( 22-Si, 26-O ) :   0.7383 
B( 22-Si, 27-O ) :   0.9218 B( 22-Si, 32-O ) :   0.8398 B( 22-Si, 35-Si) :  -0.2644 
B( 22-Si, 43-O ) :   0.9573 B( 23-Si, 27-O ) :   0.8718 B( 23-Si, 30-O ) :   0.7128 
B( 23-Si, 33-O ) :   0.8934 B( 23-Si, 34-O ) :  -0.1512 B( 23-Si, 55-O ) :   1.1517 
B( 24-Si, 28-O ) :   0.8030 B( 24-Si, 30-O ) :   1.1767 B( 24-Si, 34-O ) :   0.9426 
B( 24-Si, 54-O ) :   0.8497 B( 25-O , 28-O ) :   0.1011 B( 26-O , 27-O ) :   0.2569 
B( 26-O , 32-O ) :   0.1492 B( 26-O , 43-O ) :   0.2685 B( 27-O , 30-O ) :   0.2829 
B( 27-O , 32-O ) :   0.2005 B( 27-O , 33-O ) :   0.2035 B( 27-O , 43-O ) :   0.1809 
B( 27-O , 55-O ) :   0.2376 B( 27-O ,141-C ) :   0.1724 B( 28-O , 29-O ) :   0.1299 
B( 28-O , 30-O ) :   0.1830 B( 28-O , 31-O ) :   0.1085 B( 28-O , 34-O ) :   0.1629 
B( 28-O , 54-O ) :   0.1871 B( 29-O ,100-H ) :   0.8342 B( 30-O , 33-O ) :   0.1997 
B( 30-O , 34-O ) :   0.1894 B( 30-O , 54-O ) :   0.1572 B( 30-O , 55-O ) :   0.2642 
B( 31-O ,101-H ) :   0.8218 B( 32-O , 43-O ) :   0.1684 B( 32-O ,102-H ) :   0.8093 
B( 33-O , 55-O ) :   0.3191 B( 33-O ,103-H ) :   0.8128 B( 34-O , 54-O ) :   0.1475 
B( 34-O ,104-H ) :   0.8276 B( 35-Si, 39-O ) :   0.7047 B( 35-Si, 42-O ) :   1.0650 
B( 35-Si, 43-O ) :   0.9248 B( 35-Si, 45-O ) :   0.7111 B( 36-Si, 40-O ) :   1.0006 
B( 36-Si, 41-O ) :   1.2114 B( 36-Si, 46-O ) :   1.1155 B( 36-Si, 49-O ) :   1.0152 
B( 37-Si, 41-O ) :   0.7646 B( 37-Si, 44-O ) :   1.2137 B( 37-Si, 47-O ) :   0.9282 
B( 37-Si, 69-O ) :   0.8366 B( 38-Si, 42-O ) :   0.7990 B( 38-Si, 44-O ) :   0.3868 
B( 38-Si, 47-O ) :  -0.1494 B( 38-Si, 48-O ) :   0.7936 B( 38-Si, 64-Si) :   0.1344 
B( 38-Si, 68-O ) :   1.2077 B( 38-Si, 71-O ) :  -0.1037 B( 38-Si,141-C ) :  -0.1786 
B( 39-O , 42-O ) :   0.2055 B( 39-O , 43-O ) :   0.2894 B( 39-O , 45-O ) :   0.1470 
B( 40-O , 41-O ) :   0.1000 B( 41-O , 44-O ) :   0.2600 B( 41-O , 46-O ) :   0.1086 
B( 41-O , 47-O ) :   0.1793 B( 41-O , 49-O ) :   0.1509 B( 41-O , 69-O ) :   0.2313 
B( 42-O , 43-O ) :   0.1501 B( 42-O , 44-O ) :   0.3395 B( 42-O , 45-O ) :   0.2545 
B( 42-O , 48-O ) :   0.2396 B( 42-O , 68-O ) :   0.3282 B( 42-O ,140-C ) :  -0.2988 
B( 42-O ,141-C ) :   0.3237 B( 43-O , 45-O ) :   0.1999 B( 43-O ,141-C ) :   0.1367 
B( 44-O , 47-O ) :   0.2299 B( 44-O , 48-O ) :   0.2596 B( 44-O , 68-O ) :   0.3069 
B( 44-O ,149-C ) :   0.1907 B( 45-O ,105-H ) :   0.8107 B( 46-O ,106-H ) :   0.8225 
B( 47-O , 69-O ) :   0.1574 B( 47-O ,107-H ) :   0.8313 B( 48-O , 68-O ) :   0.3364 
B( 48-O ,108-H ) :   0.8163 B( 49-O ,109-H ) :   0.8334 B( 50-Si, 54-O ) :   1.1294 
B( 50-Si, 57-O ) :   1.0747 B( 50-Si, 58-O ) :   1.0851 B( 50-Si, 60-O ) :   1.0367 
B( 51-Si, 52-Si) :  -0.1053 B( 51-Si, 55-O ) :   0.7281 B( 51-Si, 56-O ) :   0.4864 
B( 51-Si, 61-O ) :   0.6383 B( 51-Si, 62-O ) :  -0.1798 B( 51-Si, 64-Si) :  -0.1030 
B( 51-Si, 72-O ) :   1.1013 B( 51-Si,141-C ) :  -0.1394 B( 51-Si,144-C ) :   0.1768 
B( 51-Si,155-H ) :   0.2363 B( 52-Si, 56-O ) :   1.4896 B( 52-Si, 59-O ) :   0.5995 
B( 52-Si, 62-O ) :   0.9828 B( 52-Si, 81-O ) :   0.8446 B( 52-Si, 83-O ) :  -0.1387 
B( 53-Si, 57-O ) :   1.0121 B( 53-Si, 59-O ) :   1.1800 B( 53-Si, 63-O ) :   1.0396 
B( 53-Si, 80-O ) :   0.9722 B( 54-O , 57-O ) :   0.1136 B( 54-O , 60-O ) :   0.1215 
B( 55-O , 56-O ) :   0.2928 B( 55-O , 61-O ) :   0.2271 B( 55-O , 72-O ) :   0.2131 
B( 56-O , 59-O ) :   0.1808 B( 56-O , 61-O ) :   0.3241 B( 56-O , 62-O ) :   0.3507 
B( 56-O , 64-Si) :   0.1201 B( 56-O , 72-O ) :   0.3038 B( 56-O , 81-O ) :   0.1356 
B( 56-O ,144-C ) :   0.1511 B( 57-O , 60-O ) :   0.1131 B( 57-O , 63-O ) :   0.1097 
B( 58-O ,110-H ) :   0.8324 B( 59-O , 63-O ) :   0.1814 B( 59-O , 80-O ) :   0.1549 
B( 59-O , 81-O ) :   0.2679 B( 60-O ,111-H ) :   0.8233 B( 61-O , 72-O ) :   0.2422 
B( 61-O ,112-H ) :   0.8405 B( 62-O , 81-O ) :   0.1449 B( 62-O ,113-H ) :   0.8254 
B( 63-O ,114-H ) :   0.8289 B( 64-Si, 68-O ) :   0.4869 B( 64-Si, 71-O ) :   0.8917 
B( 64-Si, 72-O ) :   0.9558 B( 64-Si, 74-O ) :   0.7261 B( 64-Si,138-N ) :   0.1119 
B( 64-Si,139-N ) :   0.1209 B( 64-Si,141-C ) :   0.2420 B( 64-Si,149-C ) :  -0.1526 
B( 64-Si,155-H ) :  -0.1206 B( 65-Si, 69-O ) :   1.1479 B( 65-Si, 70-O ) :   1.0736 
B( 65-Si, 75-O ) :   1.0688 B( 65-Si, 78-O ) :   0.9850 B( 66-Si, 70-O ) :   0.9783 
B( 66-Si, 73-O ) :   1.2360 B( 66-Si, 76-O ) :   1.1195 B( 66-Si, 86-O ) :   0.9720 
B( 67-Si, 71-O ) :   1.5120 B( 67-Si, 73-O ) :   0.5629 B( 67-Si, 77-O ) :   0.6602 
B( 67-Si, 85-O ) :   0.7599 B( 68-O , 71-O ) :   0.4334 B( 68-O , 72-O ) :   0.3177 
B( 68-O , 74-O ) :   0.1380 B( 68-O ,139-N ) :  -0.1489 B( 68-O ,140-C ) :   0.1011 
B( 68-O ,149-C ) :   0.1367 B( 69-O , 75-O ) :   0.1094 B( 69-O , 78-O ) :   0.1185 
B( 70-O , 75-O ) :   0.1053 B( 70-O , 76-O ) :   0.1073 B( 70-O , 78-O ) :   0.1705 
B( 70-O ,139-N ) :  -0.1171 B( 70-O ,149-C ) :   0.1812 B( 71-O , 72-O ) :   0.3627 
B( 71-O , 73-O ) :   0.1818 B( 71-O , 74-O ) :   0.2647 B( 71-O , 77-O ) :   0.3586 
B( 71-O , 85-O ) :   0.1528 B( 71-O ,138-N ) :   0.1190 B( 71-O ,139-N ) :  -0.2257 
B( 71-O ,145-C ) :   0.1414 B( 71-O ,147-C ) :   0.1823 B( 71-O ,148-C ) :  -0.1357 
B( 71-O ,149-C ) :  -0.2874 B( 72-O , 74-O ) :   0.2676 B( 72-O ,140-C ) :  -0.1582 
B( 72-O ,141-C ) :  -0.2891 B( 72-O ,144-C ) :   0.1199 B( 72-O ,149-C ) :   0.1669 
B( 72-O ,155-H ) :  -0.1564 B( 73-O , 76-O ) :   0.1238 B( 73-O , 77-O ) :   0.2421 
B( 73-O , 85-O ) :   0.3198 B( 73-O , 86-O ) :   0.1712 B( 73-O ,149-C ) :  -0.1526 
B( 74-O ,115-H ) :   0.8344 B( 75-O ,116-H ) :   0.8245 B( 76-O ,117-H ) :   0.8295 
B( 77-O , 85-O ) :   0.2373 B( 77-O ,118-H ) :   0.8305 B( 78-O ,119-H ) :   0.8303 
B( 79-Si, 81-O ) :   1.2837 B( 79-Si, 82-O ) :   1.0293 B( 79-Si, 83-O ) :   0.9865 
B( 79-Si, 88-O ) :   1.1014 B( 80-O ,120-H ) :   0.8373 B( 81-O , 82-O ) :   0.1495 
B( 81-O , 83-O ) :   0.2589 B( 81-O , 88-O ) :   0.1050 B( 82-O ,121-H ) :   0.8396 
B( 83-O , 88-O ) :   0.1645 B( 83-O ,122-H ) :   0.8304 B( 84-Si, 85-O ) :   1.3872 
B( 84-Si, 87-O ) :   1.0413 B( 84-Si, 88-O ) :   1.0099 B( 84-Si, 89-O ) :   0.9957 
B( 85-O , 89-O ) :   0.2370 B( 86-O ,123-H ) :   0.8334 B( 87-O ,124-H ) :   0.8384 
B( 89-O ,125-H ) :   0.8171 B(126-P ,130-O ) :   0.9424 B(126-P ,131-O ) :   1.3420 
B(126-P ,132-O ) :   1.1423 B(126-P ,134-O ) :   1.4654 B(126-P ,144-C ) :   0.1652 
B(127-O ,135-N ) :  -0.1214 B(127-O ,141-C ) :  -0.1352 B(127-O ,142-C ) :   1.0069 
B(127-O ,143-C ) :   0.8470 B(128-O ,140-C ) :   0.8594 B(128-O ,141-C ) :   0.2374 
B(128-O ,142-C ) :   0.1893 B(128-O ,143-C ) :  -0.1457 B(128-O ,144-C ) :  -0.1054 
B(128-O ,156-H ) :   0.8240 B(129-O ,141-C ) :   0.9077 B(129-O ,157-H ) :   0.9046 
B(130-O ,141-C ) :  -0.1060 B(130-O ,144-C ) :   1.1346 B(132-O ,145-C ) :   0.2932 
B(132-O ,147-C ) :   0.3515 B(132-O ,149-C ) :  -0.1808 B(132-O ,162-H ) :   0.8475 
B(133-O ,145-C ) :  -0.1601 B(133-O ,147-C ) :  -0.1365 B(133-O ,148-C ) :   1.9969 
B(135-N ,142-C ) :   1.2224 B(135-N ,144-C ) :   0.2742 B(135-N ,145-C ) :   1.3176 
B(135-N ,146-C ) :   0.9809 B(136-N ,144-C ) :   0.1300 B(136-N ,146-C ) :   1.4670 
B(136-N ,147-C ) :   1.0621 B(136-N ,148-C ) :  -0.1228 B(137-N ,139-N ) :   0.1542 
B(137-N ,141-C ) :   0.1671 B(137-N ,142-C ) :  -0.1461 B(137-N ,145-C ) :   0.9117 
B(137-N ,146-C ) :   0.1044 B(137-N ,147-C ) :  -0.1542 B(137-N ,149-C ) :   1.7046 
B(138-N ,139-N ) :  -0.1542 B(138-N ,144-C ) :  -0.1403 B(138-N ,145-C ) :   0.2978 
B(138-N ,148-C ) :   1.0065 B(138-N ,149-C ) :   1.0244 B(138-N ,159-H ) :   0.9016 
B(139-N ,149-C ) :   1.5288 B(139-N ,160-H ) :   0.8738 B(139-N ,161-H ) :   0.8910 
B(140-C ,141-C ) :   1.1760 B(140-C ,142-C ) :   0.7126 B(140-C ,144-C ) :  -0.2073 
B(140-C ,145-C ) :  -0.1992 B(140-C ,150-H ) :   0.9995 B(141-C ,142-C ) :  -0.5467 
B(141-C ,143-C ) :   1.0612 B(141-C ,144-C ) :   0.4419 B(141-C ,145-C ) :   0.2685 
B(141-C ,149-C ) :  -0.2862 B(141-C ,151-H ) :   0.9688 B(142-C ,143-C ) :   0.4046 
B(142-C ,144-C ) :   0.2205 B(142-C ,146-C ) :   0.2477 B(142-C ,150-H ) :   0.1138 
B(142-C ,152-H ) :   0.7786 B(142-C ,158-H ) :   0.1121 B(143-C ,144-C ) :   0.9874 
B(143-C ,147-C ) :  -0.1235 B(143-C ,149-C ) :   0.1313 B(143-C ,153-H ) :   0.9183 
B(144-C ,147-C ) :  -0.2145 B(144-C ,148-C ) :  -0.1465 B(144-C ,149-C ) :   0.2930 
B(144-C ,154-H ) :   0.9530 B(144-C ,155-H ) :   1.1470 B(145-C ,147-C ) :   1.8703 
B(145-C ,149-C ) :  -0.3334 B(145-C ,154-H ) :  -0.1241 B(145-C ,158-H ) :   0.1191 
B(146-C ,158-H ) :   0.8209 B(147-C ,148-C ) :   1.2138 B(147-C ,149-C ) :  -0.3144 
B(148-C ,149-C ) :   0.3035 B(149-C ,161-H ) :   0.1106 

-------
TIMINGS
-------

Total SCF time: 0 days 2 hours 8 min 36 sec 

Total time                  ....    7716.993 sec
Sum of individual times     ....    7411.037 sec  ( 96.0%)

SCF preparation             ....      18.348 sec  (  0.2%)
Fock matrix formation       ....    7092.109 sec  ( 91.9%)
  Startup                   ....       3.710 sec  (  0.1% of F)
  Split-RI-J                ....     572.780 sec  (  8.1% of F)
  Chain of spheres X        ....    5925.654 sec  ( 83.6% of F)
  XC integration            ....     365.861 sec  (  5.2% of F)
    XC Preparation          ....       0.000 sec  (  0.0% of XC)
    Basis function eval.    ....      51.246 sec  ( 14.0% of XC)
    Density eval.           ....     174.128 sec  ( 47.6% of XC)
    XC-Functional eval.     ....       0.825 sec  (  0.2% of XC)
    XC-Potential eval.      ....     121.327 sec  ( 33.2% of XC)
  CPCM terms                ....     511.912 sec  (  7.2% of F)
Diagonalization             ....       0.000 sec  (  0.0%)
Density matrix formation    ....      26.546 sec  (  0.3%)
Total Energy calculation    ....       8.739 sec  (  0.1%)
Population analysis         ....      11.148 sec  (  0.1%)
Orbital Transformation      ....      29.239 sec  (  0.4%)
Orbital Orthonormalization  ....       0.000 sec  (  0.0%)
DIIS solution               ....     141.587 sec  (  1.8%)
SOSCF solution              ....      83.322 sec  (  1.1%)
Finished LeanSCF after 7720.9 sec

Maximum memory used throughout the entire LEANSCF-calculation: 2029.8 MB


-------------------------------------------------------------------------------
                          DFT DISPERSION CORRECTION                            
                                                                               
                              DFTD3 V3.1  Rev 1                                
                          USING Becke-Johnson damping                          
-------------------------------------------------------------------------------
The PBE0 functional is recognized
Active option DFTDOPT                   ...         4   

molecular C6(AA) [au] = 469137.221524 


            DFT-D V3
 parameters
 s6 scaling factor         :     1.0000 
 a1 scaling factor         :     0.4145 
 s8 scaling factor         :     1.2177 
 a2 scaling factor         :     4.8593 
 ad hoc parameters k1-k3   :    16.0000     1.3333    -4.0000 

 Edisp/kcal,au: -184.617863724101  -0.294207261662 
 E6   /kcal   : -110.523624775 
 E8   /kcal   : -74.094238949 
 % E8         :  40.133840493 

-------------------------   ----------------
Dispersion correction           -0.294207262
-------------------------   ----------------


-------------------------   --------------------
FINAL SINGLE POINT ENERGY    -13539.707594017047
-------------------------   --------------------



           ************************************************************
           *        Program running with 12 parallel MPI-processes    *
           *              working on a common directory               *
           ************************************************************
------------------------------------------------------------------------------
                         ORCA SCF GRADIENT CALCULATION
------------------------------------------------------------------------------

Nuc. rep. gradient        (SHARK) ... done (  0.0 sec)
HCore & Overlap gradient  (SHARK) ... done ( 34.6 sec)
Split-RIJ-J gradient      (SHARK) ... done (144.3 sec)
