160
Step=1
Si  0.82550300  16.90273300  8.02672800
Si  3.57859300  15.40405400  7.91524300
Si  3.61525300  12.32827200  7.79142800
O  -0.39399300  16.38822500  8.97049800
O   2.14700000  16.01900000  8.38100000
O   2.16833100  11.70013100  8.17359000
O   3.71000000  13.84500000  8.38400000
O   0.51413300  16.82449500  6.43064600
O   3.78242900  15.56381400  6.30078700
O   3.83835800  12.26151700  6.17639000
Si  0.79040500  20.03770000  8.11798300
Si  3.61646500  24.59144300  7.78977800
Si  3.57392300  21.51644700  7.91298100
O  -0.36656800  20.60916400  9.10618700
O   2.16894300  25.21986200  8.16918500
O   2.14700000  20.90100000  8.38100000
O   1.04500000  18.46000000  8.38400000
O   3.71000000  23.07500000  8.38400000
O   0.28796900  20.17942500  6.58029600
O   3.84322900  24.65740300  6.17523000
O   3.76807200  21.35886600  6.29712000
Si  6.22270300  10.74479000  7.89204900
Si  6.22770200  16.89731200  8.01236700
Si  8.87567200  15.40393500  8.07146700
Si  8.88270000  12.35331700  7.92738900
O   4.81100000  11.40400000  8.38100000
O   4.84026700  16.22821100  8.54553500
O   7.53252400  16.13445000  8.63606400
O   7.47600000  11.67100000  8.38100000
O   6.39553700  9.26420200  8.53484800
O   8.97115800  13.85656800  8.57903200
O   6.19358000  10.56500300  6.27778400
O   6.34068200  16.74021400  6.38952300
O   8.84554300  15.39082800  6.42808000
O   8.99617600  12.49448500  6.29922600
Si  6.21638900  20.01550500  8.00088200
Si  6.22275700  26.17797500  7.89639700
Si  8.88164500  24.57359600  7.91870100
Si  8.85075300  21.52826000  8.03684200
O   4.83212200  20.68555700  8.53863800
O   4.81100000  25.51600000  8.38100000
O   7.47600000  25.24900000  8.38100000
O   7.51705000  20.79206800  8.61378700
O   6.27926900  18.45840700  8.45642100
O   8.96178700  23.06765900  8.56086500
O   6.31668600  20.15996000  6.37582700
O   6.19404500  26.36676300  6.28308200
O   8.99771800  24.44641200  6.28994600
O   8.79833300  21.55854500  6.39502400
O   6.39500700  27.65560300  8.54611700
Si  11.54077800  10.90435200  7.70392400
Si  11.54475400  16.89739000  7.91695200
Si  14.20353600  15.39713100  7.87470900
Si  14.23582000  12.29374200  7.89821800
O   10.14000000  11.40400000  8.38100000
O   10.19474400  16.23030400  8.55061100
O   12.85059900  16.10098600  8.48098100
O   12.80500000  11.67100000  8.38100000
O   11.70002200  9.30021600  7.89283400
O   14.36800000  13.84500000  8.38400000
O   11.52647400  11.21103000  6.10107400
O   11.53153700  16.72019100  6.29171000
O   14.13836300  15.44005700  6.24791000
O   14.36592100  12.11520300  6.28747400
Si  11.52107500  20.04305300  7.85872200
Si  11.54104400  26.02008600  7.70790700
Si  14.23698900  24.62924600  7.90141000
Si  14.21263200  21.53527600  7.85646400
O   10.17156500  20.69916000  8.49678400
O   10.14000000  25.51600000  8.38100000
O   12.80500000  25.24900000  8.38100000
O   12.80500000  20.90100000  8.38100000
O   11.64364400  18.47899300  8.30700800
O   14.36800000  23.07500000  8.38400000
O   11.49649700  20.16818400  6.23103200
O   11.52980000  25.72254300  6.10357100
O   14.36785300  24.80206500  6.29032800
O   14.23459300  21.46715800  6.21933400
O   11.70097800  27.62284100  7.90688300
Si  16.94924900  16.87134200  8.04468200
O   15.47125000  11.46932700  8.55584000
O   15.46900000  16.28600000  8.38100000
O   18.07446200  16.21289800  9.01232900
O   17.32777000  16.54921100  6.49331000
Si  16.79747600  19.93081100  7.73267200
O   15.46900000  20.63400000  8.38100000
O   15.47112700  25.45237000  8.56102300
O   18.11634100  20.83520200  8.03021800
O   17.03200000  18.46000000  8.38400000
O   16.60876900  19.83038400  6.12139200
H  -0.50423300  15.43969800  9.08178100
H   1.69998200  12.07828000  8.92297400
H   0.31527800  15.96291600  6.05244500
H   3.06011700  15.36094400  5.69970900
H   3.18226100  12.64156700  5.58570400
H  -0.12746500  20.79216800  10.01912000
H   1.69595600  24.83705400  8.91328400
H   0.06870200  21.06154600  6.26602500
H   3.18504400  24.28262500  5.58349200
H   3.04237600  21.56618400  5.70151800
H   6.86261700  9.19605300  9.37200300
H   5.50488200  11.07966300  5.83436100
H   5.53947200  16.40054300  5.95952200
H   8.05967300  15.81862300  6.04527900
H   8.86604800  13.39292800  5.95934400
H   5.51369500  20.50210000  5.95097600
H   5.50812300  25.85154700  5.83617100
H   8.84698100  23.55488100  5.94014900
H   8.01534700  21.12144600  6.01740500
H   6.85640200  27.71938900  9.38677000
H   12.07465600  8.98126900  8.71867800
H   10.73932800  11.69412400  5.80207300
H   10.72188000  16.34829400  5.91526700
H   13.31446500  15.80088700  5.88887800
H   13.52713000  11.98281400  5.82547800
H   10.69115600  20.54020200  5.84772900
H   10.74283600  25.24201400  5.79986200
H   13.53075200  24.94716800  5.82892500
H   13.39832300  21.21040200  5.80701700
H   12.07260100  27.93684500  8.73599200
H   15.82850300  11.79809400  9.38506500
H   18.14928400  15.25438700  9.00788300
H   16.62567000  16.64916100  5.84290700
H   15.82415900  25.12896100  9.39417300
H   18.51458400  20.76863300  8.90270000
H   15.82968300  20.30123600  5.78901700
P   5.62430100  23.28613600  10.86754500
O   9.24013400  23.54565500  12.93480000
O   11.22250800  25.72416700  12.08467400
O   12.30688000  23.44193600  11.23280800
O   6.76450400  23.78189100  11.89753700
O   11.91008400  20.67126600  11.80287400
O   4.42820200  24.20786200  10.92599900
O   5.22236600  21.78024600  11.22791700
O   6.22767900  23.18264600  9.48179500
N   9.78702100  21.42995200  11.92668900
N   10.29319800  19.22413400  11.17083900
N   8.55445400  17.93800400  10.33134700
C   10.33348900  24.93289500  11.33102800
C   10.90033900  23.50622900  11.16430800
C   9.00585500  24.68364500  12.10534200
C   10.27069000  22.73429500  12.35244900
C   7.80097900  24.40392100  11.19267200
C   8.45270700  21.24460800  11.75089600
C   10.71584400  20.42811000  11.63808700
C   8.03580300  20.06508400  11.27210300
C   8.99716600  19.07483900  10.96534300
H   10.17402100  25.43549300  10.36661700
H   10.58300800  23.06506900  10.20480800
H   8.79832200  25.51764300  12.79101000
H   11.02459400  22.58096800  13.13635100
H   8.08323900  23.70752800  10.38347200
H   7.40652000  25.31872200  10.72122600
H   12.13684000  25.40829900  11.90971600
H   12.52426700  22.48935400  11.33587000
H   7.77877800  22.05404900  11.97314400
H   6.99577300  19.88693000  11.06137300
H   7.70173800  17.99366700  9.76913800
H   9.22989100  17.35294300  9.85138200
H   5.04684100  21.36196900  10.35761600
160
Step=2
Si  0.82581100  16.90298600  8.02577400
Si  3.58013100  15.40496100  7.91884000
Si  3.61616100  12.32869700  7.79023700
O  -0.39575600  16.38738400  8.96662300
O   2.14700000  16.01900000  8.38100000
O   2.16851900  11.70052200  8.17027300
O   3.71000000  13.84500000  8.38400000
O   0.51692100  16.82594800  6.42900000
O   3.79046700  15.56919300  6.30572900
O   3.84116500  12.26245900  6.17534100
Si  0.79192000  20.03720800  8.11456100
Si  3.62016200  24.59003900  7.79473300
Si  3.57685700  21.51713500  7.92191600
O  -0.36933200  20.61042700  9.09711200
O   2.17044700  25.21951600  8.17051400
O   2.14700000  20.90100000  8.38100000
O   1.04500000  18.46000000  8.38400000
O   3.71000000  23.07500000  8.38400000
O   0.29460600  20.17628900  6.57473200
O   3.84273600  24.65631900  6.17771500
O   3.77714100  21.34710600  6.30763200
Si  6.22262300  10.74481800  7.89260200
Si  6.22878900  16.89519700  8.02831400
Si  8.87745500  15.39984700  8.07486800
Si  8.88273900  12.35206000  7.92680600
O   4.81100000  11.40400000  8.38100000
O   4.84115900  16.22525400  8.55674500
O   7.53539100  16.12729100  8.64744900
O   7.47600000  11.67100000  8.38100000
O   6.39542500  9.26450800  8.53639200
O   8.97304800  13.85376500  8.57967300
O   6.19414700  10.56370600  6.27831400
O   6.34400500  16.75102500  6.40525200
O   8.84412000  15.39310100  6.43233900
O   8.99667700  12.49522500  6.29888700
Si  6.21857900  20.01341300  8.01580800
Si  6.22175300  26.17449700  7.89869200
Si  8.87910200  24.57353600  7.91797800
Si  8.85020500  21.52782900  8.03695300
O   4.83221400  20.68224600  8.55973200
O   4.81100000  25.51600000  8.38100000
O   7.47600000  25.24900000  8.38100000
O   7.52068100  20.78846600  8.61397000
O   6.28330700  18.45554200  8.48392100
O   8.96397500  23.06721000  8.56206400
O   6.31339200  20.13975900  6.38893600
O   6.19389800  26.36566200  6.28401100
O   8.99883000  24.44359700  6.28894900
O   8.79278700  21.55456900  6.39461500
O   6.39548400  27.65399000  8.54784000
Si  11.54085500  10.90410600  7.70421200
Si  11.54715300  16.89667400  7.92008800
Si  14.20426000  15.39665900  7.87448400
Si  14.23571100  12.29377200  7.89851800
O   10.14000000  11.40400000  8.38100000
O   10.19764100  16.22627900  8.55766000
O   12.85231600  16.09994400  8.48185800
O   12.80500000  11.67100000  8.38100000
O   11.70015700  9.30003300  7.89403900
O   14.36800000  13.84500000  8.38400000
O   11.52672200  11.21007900  6.10116800
O   11.53017900  16.71896100  6.29507500
O   14.13797700  15.44011300  6.24761600
O   14.36622000  12.11489300  6.28769500
Si  11.52096600  20.04078000  7.86485100
Si  11.54121400  26.02098800  7.70880000
Si  14.23655200  24.62892300  7.90147100
Si  14.21123700  21.53387800  7.85936600
O   10.17128600  20.69964300  8.49765700
O   10.14000000  25.51600000  8.38100000
O   12.80500000  25.24900000  8.38100000
O   12.80593600  20.89685200  8.38792500
O   11.64455000  18.47621400  8.31010900
O   14.36800000  23.07500000  8.38400000
O   11.49637100  20.16626500  6.23704100
O   11.52939100  25.72578600  6.10397100
O   14.36725300  24.80223600  6.29018600
O   14.23158900  21.46586000  6.22196800
O   11.70085800  27.62350900  7.91131400
Si  16.94927100  16.87137800  8.04534400
O   15.47124600  11.46948300  8.55649000
O   15.46900000  16.28600000  8.38100000
O   18.07413000  16.21330700  9.01403700
O   17.32951200  16.54845300  6.49433400
Si  16.79658500  19.93045600  7.73185100
O   15.46900000  20.63400000  8.38100000
O   15.47113400  25.45204600  8.56090500
O   18.11601900  20.83499600  8.02735700
O   17.03200000  18.46000000  8.38400000
O   16.60615000  19.82922400  6.12064900
H  -0.50641500  15.43861000  9.07705200
H   1.69891200  12.07854300  8.91917300
H   0.31874300  15.96461700  6.04942200
H   3.07076700  15.36802400  5.70066700
H   3.18572900  12.64254700  5.58363200
H  -0.13403100  20.79540400  10.01080700
H   1.69821600  24.83541700  8.91377000
H   0.07632900  21.05793700  6.25795500
H   3.18239200  24.28226000  5.58821100
H   3.05336600  21.54921000  5.70822400
H   6.86267000  9.19644600  9.37367400
H   5.50568400  11.07792700  5.83374000
H   5.54318300  16.41550700  5.97059700
H   8.05773600  15.82254500  6.05155300
H   8.86776800  13.39450200  5.95992000
H   5.51028100  20.47585000  5.96060100
H   5.50710100  25.85092000  5.83863100
H   8.85089500  23.55077300  5.94158400
H   8.00796800  21.11456700  6.02311200
H   6.85809000  27.71721700  9.38762500
H   12.07477600  8.98112700  8.72010400
H   10.73946600  11.69299800  5.80157100
H   10.72064600  16.34713700  5.91835000
H   13.31402700  15.80156000  5.88884900
H   13.52762600  11.98194700  5.82513600
H   10.69078200  20.53989000  5.85489000
H   10.74155200  25.24579400  5.80010700
H   13.53004000  24.94835500  5.82891400
H   13.39563100  21.20864500  5.80980400
H   12.07234700  27.93606400  8.74127400
H   15.82881500  11.79824400  9.38579400
H   18.14930300  15.25463900  9.01025200
H   16.62825000  16.64761900  5.84267400
H   15.82433300  25.12861900  9.39415200
H   18.51555000  20.76904000  8.89947700
H   15.82660800  20.30022000  5.78877600
P   5.58374400  23.28396000  10.91724400
O   9.25065800  23.49709900  12.96756200
O   11.17682600  25.70400900  12.15976000
O   12.28894600  23.45687900  11.28504700
O   6.76130900  23.74255500  11.92792700
O   11.92169900  20.68062100  11.80886500
O   4.38884700  24.17279200  11.13667800
O   5.23423200  21.76008400  11.28819300
O   6.12507300  23.22647600  9.51666300
N   9.78616000  21.39190400  11.98940200
N   10.29696600  19.21052700  11.20599400
N   8.56779800  17.91800100  10.37730800
C   10.31147600  24.90779700  11.38152500
C   10.88465800  23.49123900  11.21109000
C   8.99912500  24.64268100  12.14318900
C   10.27429000  22.70560300  12.39487000
C   7.80628800  24.37966500  11.22228900
C   8.45484500  21.17604400  11.85691000
C   10.72229800  20.40830500  11.68147000
C   8.02926300  19.99719900  11.37610800
C   8.99967000  19.03776000  11.01461000
H   10.15909000  25.41054100  10.41425200
H   10.57234300  23.06426500  10.24624600
H   8.78852100  25.46863400  12.83036800
H   11.03377800  22.55613700  13.16738600
H   8.08219300  23.69956100  10.41150400
H   7.42045600  25.29321100  10.75435100
H   12.08322600  25.40093100  11.99917500
H   12.51921200  22.51551900  11.39254600
H   7.78297100  21.97420800  12.12214500
H   6.98285200  19.80807600  11.20398500
H   7.71949400  17.97513100  9.81730800
H   9.24277800  17.33993400  9.89241200
H   5.05191200  21.34400000  10.41852200
160
Step=3
Si  0.82625200  16.90335500  8.02452100
Si  3.58190200  15.40596800  7.92347300
Si  3.61714400  12.32922300  7.78909000
O  -0.39794600  16.38639800  8.96165700
O   2.14700000  16.01900000  8.38100000
O   2.16864300  11.70105700  8.16686700
O   3.71000000  13.84500000  8.38400000
O   0.52041100  16.82747800  6.42687200
O   3.80044400  15.57623000  6.31220100
O   3.84403300  12.26372400  6.17431500
Si  0.79407000  20.03672900  8.10974000
Si  3.62589400  24.58746900  7.80129500
Si  3.58222600  21.51775000  7.93581100
O  -0.37326900  20.61237100  9.08428900
O   2.17286900  25.21899500  8.17135600
O   2.14700000  20.90100000  8.38100000
O   1.04500000  18.46000000  8.38400000
O   3.71000000  23.07500000  8.38400000
O   0.30388200  20.17232300  6.56695000
O   3.84403400  24.65309000  6.18085700
O   3.79311400  21.33004800  6.32419700
Si  6.22247200  10.74516900  7.89279800
Si  6.22966100  16.89201500  8.04832800
Si  8.87946100  15.39488300  8.08114300
Si  8.88272200  12.35069300  7.92670500
O   4.81100000  11.40400000  8.38100000
O   4.84213400  16.22144400  8.57105700
O   7.53859000  16.11932500  8.66386900
O   7.47600000  11.67100000  8.38100000
O   6.39529400  9.26477400  8.53691900
O   8.97516300  13.85044900  8.58196700
O   6.19500700  10.56345100  6.27834200
O   6.34902200  16.76372400  6.42548800
O   8.84331900  15.39667400  6.44015000
O   8.99697300  12.49722800  6.29915100
Si  6.22242600  20.01056100  8.04315800
Si  6.22041100  26.16916500  7.90204600
Si  8.87588700  24.57218000  7.91909800
Si  8.85116200  21.52622600  8.04873800
O   4.83211200  20.67609900  8.59417500
O   4.81100000  25.51600000  8.38100000
O   7.47600000  25.24900000  8.38100000
O   7.52543100  20.78379400  8.62509300
O   6.28922500  18.45001800  8.52410900
O   8.97023400  23.06676900  8.57078600
O   6.31322900  20.11527400  6.41505900
O   6.19421900  26.36318300  6.28534300
O   9.00000600  24.43556100  6.29001300
O   8.78798400  21.54803300  6.40587100
O   6.39627800  27.65123800  8.55048000
Si  11.54091600  10.90398100  7.70442800
Si  11.55038200  16.89554300  7.92608800
Si  14.20504600  15.39599400  7.87462800
Si  14.23552500  12.29385000  7.89891500
O   10.14000000  11.40400000  8.38100000
O   10.20081200  16.22181800  8.56993900
O   12.85447300  16.09801900  8.48418600
O   12.80500000  11.67100000  8.38100000
O   11.70029200  9.29975100  7.89457500
O   14.36800000  13.84500000  8.38400000
O   11.52681000  11.20985500  6.10129400
O   11.52782700  16.71849800  6.30134500
O   14.13653400  15.44047400  6.24772400
O   14.36657100  12.11466900  6.28795800
Si  11.52102100  20.03678200  7.88141900
Si  11.54108400  26.02086700  7.70852200
Si  14.23583800  24.62820900  7.90110400
Si  14.20848300  21.53123600  7.86532300
O   10.17191800  20.69861400  8.50942500
O   10.14000000  25.51600000  8.38100000
O   12.80500000  25.24900000  8.38100000
O   12.80841600  20.88979600  8.40377600
O   11.64646800  18.47096800  8.31887100
O   14.36800000  23.07500000  8.38400000
O   11.49459100  20.16264700  6.25316300
O   11.52791500  25.72542600  6.10367300
O   14.36619400  24.80131100  6.28940600
O   14.22402200  21.46305600  6.22752000
O   11.70016200  27.62350800  7.91243000
Si  16.94921800  16.87147700  8.04620600
O   15.47124100  11.46963800  8.55721800
O   15.46900000  16.28600000  8.38100000
O   18.07376800  16.21384900  9.01614900
O   17.33182100  16.54760200  6.49564000
Si  16.79463700  19.92959900  7.73005200
O   15.46900000  20.63400000  8.38100000
O   15.47112000  25.45166700  8.55976500
O   18.11518100  20.83454700  8.02068800
O   17.03200000  18.46000000  8.38400000
O   16.59964900  19.82650700  6.11928000
H  -0.50907800  15.43750300  9.07122100
H   1.69771900  12.07896700  8.91509700
H   0.32316200  15.96654000  6.04575900
H   3.08410400  15.37749700  5.70218900
H   3.18947700  12.64409900  5.58166200
H  -0.14334200  20.79993200  9.99891700
H   1.70084600  24.83268000  8.91369200
H   0.08714600  21.05323700  6.24688400
H   3.18098000  24.27888600  5.59468500
H   3.07235800  21.52537400  5.71896600
H   6.86274500  9.19617000  9.37411900
H   5.50706500  11.07741800  5.83253900
H   5.54937300  16.43270700  5.98463300
H   8.05736200  15.82894200  6.06127000
H   8.86908000  13.39729600  5.96165700
H   5.51110400  20.44442800  5.98026200
H   5.50616800  25.84863600  5.84173000
H   8.85535400  23.54070100  5.94674000
H   8.00173700  21.10454400  6.04168400
H   6.86071800  27.71320300  9.38938600
H   12.07494000  8.98036800  8.72051600
H   10.73958400  11.69276900  5.80130200
H   10.71848400  16.34794100  5.92332600
H   13.31240300  15.80259000  5.88983300
H   13.52842600  11.98100500  5.82466400
H   10.68893300  20.53742000  5.87279600
H   10.73955000  25.24511100  5.80112800
H   13.52905700  24.94830100  5.82821500
H   13.38808000  21.20496200  5.81635900
H   12.07181000  27.93581900  8.74250100
H   15.82929900  11.79817700  9.38647400
H   18.14948700  15.25515900  9.01318800
H   16.63193200  16.64569500  5.84225400
H   15.82468900  25.12857700  9.39308200
H   18.51740900  20.77005300  8.89175000
H   15.81906800  20.29754100  5.78934700
P   5.57475400  23.27819500  10.92325700
O   9.25339100  23.46253100  13.00881200
O   11.12994900  25.68872500  12.24790900
O   12.27464100  23.47512900  11.35208000
O   6.75310200  23.71500000  11.95313400
O   11.91574900  20.70153300  11.84747000
O   4.39399700  24.15150300  11.21485900
O   5.24694000  21.75140900  11.35195500
O   6.14988600  23.20027500  9.55850600
N   9.76937300  21.37251300  12.05253600
N   10.29112100  19.21579100  11.25400700
N   8.58383000  17.90570200  10.42903900
C   10.29107400  24.88576600  11.44454800
C   10.87132000  23.47897800  11.27412200
C   8.98989800  24.61173500  12.18857600
C   10.26815000  22.68977700  12.45121300
C   7.82052500  24.35702200  11.25682600
C   8.44554000  21.13382300  11.93600200
C   10.71420200  20.40788500  11.72718000
C   8.01205300  19.95517800  11.45043300
C   8.99544100  19.01661600  11.06081800
H   10.14700900  25.38166800  10.47225300
H   10.56019400  23.06836700  10.30505700
H   8.76936500  25.43117500  12.87463900
H   11.03408900  22.52751900  13.21105300
H   8.09238700  23.69349900  10.44126500
H   7.44802400  25.27132200  10.78917800
H   12.03476700  25.39468000  12.10410100
H   12.51959100  22.54237900  11.46689600
H   7.77850300  21.93303000  12.22179900
H   6.96129200  19.76052800  11.30141800
H   7.73912700  17.95948100  9.87544900
H   9.26176900  17.33294300  9.94355500
H   5.04998100  21.32628300  10.49353800
160
Step=4
Si  0.82715100  16.90376800  8.02272800
Si  3.58351200  15.40705800  7.92825000
Si  3.61829500  12.32990600  7.78765100
O  -0.39885200  16.38575200  8.95705700
O   2.14700000  16.01900000  8.38100000
O   2.16888100  11.70153400  8.16215900
O   3.71000000  13.84500000  8.38400000
O   0.52397900  16.82832800  6.42441600
O   3.81033600  15.58396600  6.31896700
O   3.84810400  12.26611200  6.17319600
Si  0.79592500  20.03662200  8.10528500
Si  3.62708900  24.58659200  7.80804100
Si  3.58807000  21.51693200  7.94867800
O  -0.37653900  20.61402500  9.07308500
O   2.17313200  25.21786600  8.18171000
O   2.14700000  20.90100000  8.38100000
O   1.04500000  18.46000000  8.38400000
O   3.71000000  23.07500000  8.38400000
O   0.31216200  20.16946100  6.56000700
O   3.83683400  24.65306200  6.18489500
O   3.81386100  21.31473900  6.34048800
Si  6.22246300  10.74472700  7.89371700
Si  6.22894100  16.89286100  8.07064000
Si  8.87920100  15.39233800  8.08736500
Si  8.88262200  12.34957400  7.92660800
O   4.81100000  11.40400000  8.38100000
O   4.84156900  16.21882500  8.58602500
O   7.54001500  16.11445000  8.68032400
O   7.47600000  11.67100000  8.38100000
O   6.39527500  9.26481900  8.53925600
O   8.97620200  13.84815400  8.58431400
O   6.19572400  10.56149300  6.27933700
O   6.35163900  16.78091800  6.44766400
O   8.83903500  15.40191100  6.44763600
O   8.99653400  12.49850800  6.29927900
Si  6.22379300  20.00854100  8.07932900
Si  6.21983600  26.16407900  7.90220000
Si  8.87402100  24.56740800  7.92593900
Si  8.85269900  21.52393900  8.07204300
O   4.82996500  20.67326700  8.63041000
O   4.81100000  25.51600000  8.38100000
O   7.47600000  25.24900000  8.38100000
O   7.53041300  20.77786800  8.64862600
O   6.29079100  18.44628600  8.56881400
O   8.97888100  23.06525500  8.58913200
O   6.31293700  20.09628200  6.45092800
O   6.19315700  26.35758100  6.28413500
O   9.00080500  24.42158500  6.29760400
O   8.78525700  21.54244000  6.42886300
O   6.39659700  27.64868500  8.54770600
Si  11.54095100  10.90377300  7.70466400
Si  11.55156700  16.89285000  7.92926200
Si  14.20591400  15.39524800  7.87430000
Si  14.23563100  12.29376900  7.89945500
O   10.14000000  11.40400000  8.38100000
O   10.20286600  16.21770800  8.57927300
O   12.85519800  16.09499700  8.48507500
O   12.80500000  11.67100000  8.38100000
O   11.70045100  9.29941800  7.89505900
O   14.36800000  13.84500000  8.38400000
O   11.52697400  11.20941000  6.10145800
O   11.52357100  16.71590100  6.30498200
O   14.13610700  15.43998000  6.24741400
O   14.36756300  12.11418200  6.28851200
Si  11.52108700  20.03323600  7.90077000
Si  11.54047300  26.01778700  7.70578800
Si  14.23527900  24.62740000  7.90074700
Si  14.20504500  21.52842100  7.87233700
O   10.17411000  20.69667200  8.52929400
O   10.14000000  25.51600000  8.38100000
O   12.80500000  25.24900000  8.38100000
O   12.81309200  20.87942600  8.42334700
O   11.64698200  18.46499900  8.32694300
O   14.36800000  23.07500000  8.38400000
O   11.49183700  20.16279500  6.27217300
O   11.52561500  25.71566700  6.10216800
O   14.36620300  24.79957200  6.28878100
O   14.21278600  21.45872200  6.23441000
O   11.69907100  27.62137900  7.90353900
Si  16.94971500  16.87108500  8.04845900
O   15.47123400  11.46971000  8.55845800
O   15.46900000  16.28600000  8.38100000
O   18.07251900  16.21469700  9.02162200
O   17.33627200  16.54499100  6.49915300
Si  16.79188000  19.92806100  7.72718900
O   15.46900000  20.63400000  8.38100000
O   15.47072500  25.45141900  8.55897900
O   18.11389200  20.83351500  8.01015700
O   17.03200000  18.46000000  8.38400000
O   16.58999100  19.82128000  6.11739000
H  -0.50963900  15.43693000  9.06678100
H   1.69614600  12.07942000  8.90915700
H   0.32775500  15.96765900  6.04241700
H   3.09727300  15.38799600  5.70431200
H   3.19506900  12.64763400  5.57972200
H  -0.15096300  20.80383600  9.98828000
H   1.70585400  24.82929700  8.92649400
H   0.09754800  21.04982400  6.23723400
H   3.17102000  24.27573300  5.60375700
H   3.09775100  21.50617800  5.72822500
H   6.86311900  9.19639600  9.37614100
H   5.50820700  11.07505000  5.83245400
H   5.55348400  16.45385200  6.00142600
H   8.05458600  15.83906800  6.07159400
H   8.86824500  13.39859900  5.96256000
H   5.51114100  20.41895400  6.01026800
H   5.50144600  25.84413000  5.84374600
H   8.85722700  23.52481500  5.95896200
H   7.99964600  21.09521200  6.06905100
H   6.86332700  27.71060400  9.38556400
H   12.07530100  8.97970400  8.72067800
H   10.74027700  11.69267300  5.80107900
H   10.71356300  16.34732400  5.92649800
H   13.31194800  15.80232900  5.89004400
H   13.53009200  11.97941800  5.82455100
H   10.68650100  20.53978700  5.89407600
H   10.73818400  25.23209000  5.80326700
H   13.52968700  24.94683700  5.82692300
H   13.37628600  21.19832700  5.82582500
H   12.07211400  27.93707100  8.73156600
H   15.82976400  11.79844200  9.38732400
H   18.14839300  15.25611400  9.02051300
H   16.63855900  16.64171700  5.84337000
H   15.82451200  25.12863100  9.39225800
H   18.52016700  20.77094000  8.87939400
H   15.80807300  20.29190400  5.79035300
P   5.51279500  23.31713100  11.03039300
O   9.24311700  23.45117500  13.10086800
O   11.10548700  25.68324100  12.37340600
O   12.27762100  23.49832800  11.45492400
O   6.73424700  23.72575300  12.03676600
O   11.92450900  20.72433400  11.90159600
O   4.34397400  24.15610200  11.42941000
O   5.22509100  21.77394400  11.46781400
O   6.03987000  23.26855500  9.65543000
N   9.77124900  21.36435200  12.15355600
N   10.30980300  19.22876400  11.32264500
N   8.61606900  17.89730400  10.49982500
C   10.28234700  24.87807600  11.55282800
C   10.87268600  23.47517300  11.37981400
C   8.97494300  24.59975900  12.28256000
C   10.26621200  22.68695400  12.55519500
C   7.81975700  24.34747300  11.34041900
C   8.45271900  21.10387000  12.06216000
C   10.72460400  20.41513800  11.80027400
C   8.02179200  19.92619600  11.56899700
C   9.01501000  19.01237700  11.13391200
H   10.14208000  25.36465500  10.57776600
H   10.56230400  23.07748300  10.40439300
H   8.74346500  25.41471200  12.97136700
H   11.03594600  22.51426800  13.31157600
H   8.08686400  23.68802300  10.51570400
H   7.47185200  25.27187400  10.86777700
H   12.01871600  25.39009600  12.23955600
H   12.54003300  22.56863800  11.57811200
H   7.78559100  21.89324500  12.37951100
H   6.96958500  19.71948400  11.45205100
H   7.76725900  17.94494500  9.95014100
H   9.29722800  17.32932700  10.01390500
H   5.03255500  21.34115600  10.61527000
160
Step=5
Si  0.82820000  16.90412700  8.02121900
Si  3.58497000  15.40816200  7.93281500
Si  3.61918600  12.33049000  7.78653100
O  -0.39860200  16.38550000  8.95419900
O   2.14700000  16.01900000  8.38100000
O   2.16913100  11.70178400  8.15829000
O   3.71000000  13.84500000  8.38400000
O   0.52648100  16.82816700  6.42260500
O   3.81924300  15.59140000  6.32541700
O   3.85159200  12.26848600  6.17239000
Si  0.79854100  20.03643000  8.09825500
Si  3.63063100  24.58436700  7.80820300
Si  3.59618000  21.51400600  7.96625400
O  -0.38128000  20.61615900  9.05606200
O   2.17446100  25.21543700  8.17811800
O   2.14700000  20.90100000  8.38100000
O   1.04500000  18.46000000  8.38400000
O   3.71000000  23.07500000  8.38400000
O   0.32506100  20.16477800  6.54927700
O   3.84291500  24.64756300  6.18425600
O   3.84058600  21.29842400  6.36219000
Si  6.22253700  10.74378900  7.89507200
Si  6.22753300  16.89694000  8.09305100
Si  8.87673900  15.39121300  8.09197300
Si  8.88239500  12.34835000  7.92614800
O   4.81100000  11.40400000  8.38100000
O   4.84012300  16.21764600  8.60014500
O   7.53998500  16.11171200  8.69492200
O   7.47600000  11.67100000  8.38100000
O   6.39531000  9.26471400  8.54260800
O   8.97608200  13.84648200  8.58563800
O   6.19629900  10.55867300  6.28089200
O   6.35286200  16.80202400  6.46973400
O   8.83232900  15.40802300  6.45332700
O   8.99517400  12.49784400  6.29882100
Si  6.22405900  20.00677100  8.12246100
Si  6.22001000  26.16305700  7.90794900
Si  8.87319400  24.56112300  7.93669100
Si  8.85556100  21.52259700  8.10543200
O   4.82743200  20.66819300  8.67193100
O   4.81100000  25.51600000  8.38100000
O   7.47600000  25.24900000  8.38100000
O   7.53527000  20.77370600  8.68286800
O   6.29171500  18.44313100  8.61671600
O   8.99201800  23.06489200  8.61524800
O   6.31197600  20.08512100  6.49447700
O   6.19279600  26.36675200  6.29045400
O   9.00163700  24.40149700  6.30996500
O   8.78487500  21.53811500  6.46193800
O   6.39695600  27.64483500  8.56159300
Si  11.54099500  10.90328900  7.70517400
Si  11.55051200  16.88876800  7.93102400
Si  14.20667000  15.39453400  7.87376700
Si  14.23601700  12.29352800  7.90017700
O   10.14000000  11.40400000  8.38100000
O   10.20274700  16.21347000  8.58563000
O   12.85436000  16.09077000  8.48533200
O   12.80500000  11.67100000  8.38100000
O   11.70062300  9.29901100  7.89673100
O   14.36800000  13.84500000  8.38400000
O   11.52742800  11.20756700  6.10169600
O   11.51775700  16.71286400  6.30738300
O   14.13645800  15.43883000  6.24688000
O   14.36928200  12.11337700  6.28936900
Si  11.52111600  20.03011900  7.92572100
Si  11.53926000  26.01221600  7.70077100
Si  14.23460300  24.62636600  7.90002000
Si  14.20005600  21.52497300  7.88207600
O   10.17766300  20.69506200  8.55800000
O   10.14000000  25.51600000  8.38100000
O   12.80500000  25.24900000  8.38100000
O   12.82050700  20.86404600  8.45062400
O   11.64498800  18.45807100  8.33640000
O   14.36800000  23.07500000  8.38400000
O   11.48894400  20.16811600  6.29711700
O   11.52274200  25.69831900  6.09939900
O   14.36601800  24.79650100  6.28777900
O   14.19396700  21.45162400  6.24440200
O   11.69782700  27.61741800  7.88604100
Si  16.95097000  16.87007400  8.05277400
O   15.47122100  11.46974700  8.56038100
O   15.46900000  16.28600000  8.38100000
O   18.07000900  16.21618800  9.03212400
O   17.34414200  16.53990400  6.50590900
Si  16.78739600  19.92527800  7.72223400
O   15.46900000  20.63400000  8.38100000
O   15.47017400  25.45125500  8.55729000
O   18.11169700  20.83154300  7.99185700
O   17.03200000  18.46000000  8.38400000
O   16.57406900  19.81130300  6.11430700
H  -0.50810700  15.43674200  9.06569300
H   1.69433600  12.08041300  8.90363400
H   0.33137200  15.96733600  6.04038300
H   3.10885400  15.39831400  5.70670600
H   3.20025800  12.65207600  5.57834300
H  -0.16187100  20.80955100  9.97202600
H   1.70905900  24.82686600  8.92417900
H   0.11461300  21.04451800  6.22207700