158
Step=1
Si  0.83099700  16.90573300  8.01335600
Si  3.58311100  15.40745100  7.92611800
Si  3.61676400  12.32940400  7.78967700
O  -0.40171900  16.38374200  8.93599500
O   2.14700000  16.01900000  8.38100000
O   2.16834900  11.70128500  8.16672000
O   3.71000000  13.84500000  8.38400000
O   0.54187900  16.83812600  6.41260300
O   3.80313200  15.57678900  6.31461300
O   3.84323800  12.26507700  6.17483500
Si  0.78775000  20.04117500  8.14063000
Si  3.61576200  24.59002500  7.79277200
Si  3.57856500  21.51347400  7.92796700
O  -0.34485400  20.60204800  9.16367100
O   2.16904900  25.21829000  8.17829900
O   2.14700000  20.90100000  8.38100000
O   1.04500000  18.46000000  8.38400000
O   3.71000000  23.07500000  8.38400000
O   0.24665100  20.19340400  6.61667900
O   3.83763600  24.66202500  6.17722200
O   3.77961000  21.35119100  6.31109600
Si  6.22288900  10.74551200  7.89091600
Si  6.22838300  16.89965200  8.05981800
Si  8.87164300  15.39980900  8.12362700
Si  8.88246200  12.35560900  7.93648600
O   4.81100000  11.40400000  8.38100000
O   4.83511300  16.23067500  8.57572800
O   7.52444500  16.12308900  8.68600400
O   7.47600000  11.67100000  8.38100000
O   6.39571000  9.26340400  8.53005900
O   8.96446700  13.84787600  8.61075100
O   6.19564100  10.56906300  6.27630100
O   6.35576500  16.74737500  6.43704300
O   8.85561000  15.41619600  6.47996900
O   8.99906700  12.51690100  6.31061700
Si  6.22531300  20.01118800  8.02471100
Si  6.22220300  26.17793700  7.89717900
Si  8.88119300  24.57445000  7.91962300
Si  8.86247100  21.52328700  8.06832400
O   4.83944300  20.68338100  8.54602900
O   4.81100000  25.51600000  8.38100000
O   7.47600000  25.24900000  8.38100000
O   7.52509400  20.79102300  8.63461900
O   6.28577900  18.46035700  8.50386700
O   8.96840900  23.07073500  8.56462000
O   6.33558700  20.13860600  6.39916200
O   6.19418400  26.36649900  6.28372700
O   8.99742700  24.44359600  6.29122900
O   8.84249700  21.52030100  6.42639500
O   6.39614100  27.65520400  8.54705500
Si  11.54038000  10.90749100  7.70094000
Si  11.53294900  16.88876200  7.99240300
Si  14.19039600  15.40082600  7.89039700
Si  14.23518700  12.29524700  7.89693100
O   10.14000000  11.40400000  8.38100000
O   10.19109200  16.20958600  8.62839700
O   12.85142700  16.10150500  8.53678200
O   12.80500000  11.67100000  8.38100000
O   11.69957000  9.30243100  7.88218400
O   14.36800000  13.84500000  8.38400000
O   11.52425300  11.22100900  6.09940900
O   11.50149000  16.73502400  6.36505600
O   14.06041100  15.43769600  6.26938700
O   14.36390100  12.11729300  6.28600600
Si  11.53163900  20.03209200  7.97068600
Si  11.54106200  26.02306100  7.71168600
Si  14.23235500  24.62566900  7.89309600
Si  14.18367200  21.52190800  7.90647100
O   10.17723100  20.70812700  8.57269100
O   10.14000000  25.51600000  8.38100000
O   12.80500000  25.24900000  8.38100000
O   12.83357200  20.83854500  8.53207200
O   11.61730100  18.46434600  8.40415500
O   14.36800000  23.07500000  8.38400000
O   11.54045600  20.17962800  6.34208300
O   11.53011600  25.73214300  6.10592900
O   14.35156600  24.78464900  6.27998100
O   14.10837800  21.43050800  6.27398200
O   11.70104300  27.62473400  7.91700200
Si  16.92172200  16.88895300  7.96304200
O   15.47146700  11.46966600  8.55198900
O   15.46900000  16.28600000  8.38100000
O   18.08754100  16.11891800  8.78907400
O   17.19036300  16.72744900  6.36436500
Si  16.71946400  19.87967300  7.65283900
O   15.46900000  20.63400000  8.38100000
O   15.47416100  25.45013300  8.53616300
O   18.04643000  20.81580000  7.68713200
O   17.03200000  18.46000000  8.38400000
O   16.35710900  19.57174900  6.09182300
H  -0.50832000  15.43456900  9.04500600
H   1.70287000  12.07401200  8.92065800
H   0.34167600  15.98008100  6.02718500
H   3.08814400  15.37251800  5.70526300
H   3.19163300  12.65342600  5.58451300
H  -0.06938600  20.81603400  10.05949800
H   1.70148500  24.83194900  8.92407900
H   0.02666400  21.07893800  6.31284200
H   3.18545100  24.27283500  5.58815300
H   3.05435700  21.55917800  5.71532800
H   6.84830500  9.19464100  9.37510600
H   5.50719400  11.08459300  5.83340100
H   5.55844500  16.40981700  5.99800300
H   8.06712400  15.84357400  6.10033900
H   8.87184500  13.41891500  5.97983600
H   5.53617500  20.48278400  5.96935100
H   5.50671500  25.85248900  5.83775100
H   8.85684400  23.55215100  5.93940200
H   8.06386300  21.08182800  6.04205200
H   6.85061400  27.71739500  9.39164200
H   12.07893000  8.97962100  8.70434000
H   10.73995900  11.71101500  5.80442000
H   10.68608200  16.36593700  5.99592800
H   13.23184100  15.82144300  5.94490000
H   13.52433600  11.99024200  5.82397100
H   10.72842300  20.52335300  5.94454300
H   10.74433300  25.25188000  5.79939700
H   13.51297700  24.94330900  5.82555600
H   13.25811900  21.11141700  5.93138800
H   12.06562700  27.93595800  8.75030600
H   15.82967800  11.79772100  9.38107100
H   17.94107200  15.19334600  9.00211500
H   16.81263900  17.42829800  5.81763500
H   15.81088200  25.15215700  9.38552700
H   18.43007300  21.02441500  8.54378600
H   15.61194100  20.08537700  5.74689300
N   6.83043900  19.53322100  12.06248000
C   5.65391800  18.83401100  11.89887600
N   4.55129500  19.61528800  11.68528100
C   4.49505800  20.99888900  11.59543100
C   5.77460600  21.63453400  11.72578000
C   6.87531300  20.89018900  11.94859100
O   5.59418700  17.61721900  11.93838700
O   3.41933600  21.55486100  11.41749400
C   8.03187800  18.74423100  12.35218900
C   8.79350500  18.28929500  11.12210800
C   10.20061400  18.14812000  11.67093300
C   10.27017300  19.30819200  12.65341000
O   10.37469900  16.94468300  12.39710900
O   8.92498500  19.52820500  13.10200800
C   10.84284500  20.55092500  12.01398900
O   10.96522900  21.58743500  12.97010000
P   10.51804700  23.09278900  12.56257200
O   9.09616100  23.08560300  12.10702900
O   10.96386500  23.95388500  13.68687400
O   11.46780600  23.41518500  11.28504800
H   3.68232600  19.11277200  11.56058900
H   5.84118900  22.70912600  11.64236400
H   7.85117700  21.35134600  12.06331600
H   7.68647500  17.89329300  12.94188700
H   8.40394900  17.36449900  10.70316100
H   8.76305900  19.06160900  10.35137600
H   10.96094300  18.24056900  10.89172900
H   10.86885000  19.03446100  13.52629000
H   10.24853800  16.21069800  11.78579700
H   11.83576800  20.31338000  11.61667300
H   10.20726800  20.86423400  11.18110200
H   11.00682800  23.24702300  10.45556700
158
Step=2
Si  0.83082600  16.90564300  8.01411500
Si  3.58317600  15.40749500  7.92608500
Si  3.61625400  12.32919600  7.79047900
O  -0.40120900  16.38372000  8.93811800
O   2.14700000  16.01900000  8.38100000
O   2.16812700  11.70113200  8.16952300
O   3.71000000  13.84500000  8.38400000
O   0.53957500  16.83716700  6.41359700
O   3.80347900  15.57679100  6.31450000
O   3.84084200  12.26331300  6.17531700
Si  0.78798900  20.04108300  8.14028800
Si  3.61544400  24.59012900  7.79327800
Si  3.57877900  21.51326400  7.92847700
O  -0.34521000  20.60222900  9.16284500
O   2.16886300  25.21838300  8.18016600
O   2.14700000  20.90100000  8.38100000
O   1.04500000  18.46000000  8.38400000
O   3.71000000  23.07500000  8.38400000
O   0.24696500  20.19332200  6.61609400
O   3.83593500  24.66346200  6.17746100
O   3.78038400  21.35049000  6.31162500
Si  6.22288200  10.74578300  7.89081400
Si  6.22846300  16.89976100  8.06068300
Si  8.87165300  15.39987500  8.12415000
Si  8.88244900  12.35568600  7.93663600
O   4.81100000  11.40400000  8.38100000
O   4.83509800  16.23053200  8.57596400
O   7.52438900  16.12289900  8.68665300
O   7.47600000  11.67100000  8.38100000
O   6.39573600  9.26339100  8.52978800
O   8.96448200  13.84783300  8.61099900
O   6.19577000  10.56922700  6.27599400
O   6.35620200  16.74850900  6.43768700
O   8.85581000  15.41612100  6.48042400
O   8.99893600  12.51673400  6.31066900
Si  6.22548200  20.01118600  8.02673800
Si  6.22220800  26.17772300  7.89716600
Si  8.88116000  24.57425400  7.92004500
Si  8.86256300  21.52338300  8.07102700
O   4.83934400  20.68338000  8.54733300
O   4.81100000  25.51600000  8.38100000
O   7.47600000  25.24900000  8.38100000
O   7.52503200  20.79107600  8.63699200
O   6.28585900  18.46021600  8.50542200
O   8.96796900  23.07116300  8.56614900
O   6.33650700  20.13850200  6.40115100
O   6.19434200  26.36660700  6.28353900
O   8.99743700  24.44271900  6.29162000
O   8.84320500  21.51995500  6.42901200
O   6.39619500  27.65520100  8.54705200
Si  11.54034900  10.90734200  7.70122500
Si  11.53284100  16.88921800  7.99370400
Si  14.19022900  15.40091700  7.89072300
Si  14.23516800  12.29528400  7.89709400
O   10.14000000  11.40400000  8.38100000
O   10.19097000  16.20962600  8.62908800
O   12.85142300  16.10153800  8.53733900
O   12.80500000  11.67100000  8.38100000
O   11.69961800  9.30219900  7.88336200
O   14.36800000  13.84500000  8.38400000
O   11.52439500  11.21987700  6.09940000
O   11.50169900  16.73669700  6.36613300
O   14.06032600  15.43779300  6.26952100
O   14.36476800  12.11706200  6.28606100
Si  11.53129200  20.03236300  7.97332700
Si  11.54101500  26.02295700  7.71177000
Si  14.23236200  24.62565700  7.89336100
Si  14.18359800  21.52185200  7.90669600
O   10.17756400  20.70910300  8.57609400
O   10.14000000  25.51600000  8.38100000
O   12.80500000  25.24900000  8.38100000
O   12.83401000  20.83850600  8.53314300
O   11.61691500  18.46455100  8.40649200
O   14.36800000  23.07500000  8.38400000
O   11.53932000  20.17933700  6.34459200
O   11.53022200  25.73236500  6.10581900
O   14.35271500  24.78520300  6.28020300
O   14.10810100  21.43002800  6.27412400
O   11.70103800  27.62480500  7.91735200
Si  16.92171000  16.88892500  7.96316600
O   15.47150300  11.46975300  8.55259400
O   15.46900000  16.28600000  8.38100000
O   18.08742500  16.11882900  8.78970300
O   17.19095700  16.72688100  6.36444100
Si  16.71967100  19.87988600  7.65315900
O   15.46900000  20.63400000  8.38100000
O   15.47415400  25.44991800  8.53726900
O   18.04684400  20.81600700  7.68872100
O   17.03200000  18.46000000  8.38400000
O   16.35858900  19.57253400  6.09164300
H  -0.50602400  15.43448400  9.05042200
H   1.70143200  12.07644100  8.92170800
H   0.33962500  15.97875000  6.02830100
H   3.08927400  15.37098900  5.70442200
H   3.18765200  12.64914300  5.58471800
H  -0.06981300  20.81946400  10.05815200
H   1.69928800  24.82886000  8.92331600
H   0.02857300  21.07911000  6.31113100
H   3.18240500  24.27664000  5.58795000
H   3.05560700  21.55874100  5.71501600
H   6.85099400  9.19369500  9.37357800
H   5.50655200  11.08368500  5.83259200
H   5.55952600  16.40983800  5.99809600
H   8.06621800  15.84136400  6.10045300
H   8.87171500  13.41878000  5.97952700
H   5.53789000  20.48409600  5.97075500
H   5.50592300  25.85392700  5.83704200
H   8.85753600  23.55087400  5.94011100
H   8.06362000  21.08332100  6.04428500
H   6.85366400  27.71824000  9.39020400
H   12.07998100  8.97936600  8.70529600
H   10.74036500  11.71024200  5.80368500
H   10.68671500  16.36696800  5.99630500
H   13.23259000  15.82343700  5.94457400
H   13.52587200  11.98701700  5.82330300
H   10.72745100  20.52371600  5.94705000
H   10.74467700  25.25158400  5.79887000
H   13.51490200  24.94673200  5.82499300
H   13.25924100  21.10686100  5.93149200
H   12.06689200  27.93632600  8.75023500
H   15.83125000  11.79877500  9.38089800
H   17.93999300  15.19384100  9.00571800
H   16.81530500  17.42851800  5.81695300
H   15.81251400  25.15036700  9.38568900
H   18.43057500  21.02406400  8.54569300
H   15.61328500  20.08574600  5.74590900
N   6.83419500  19.53807500  12.06549100
C   5.65292100  18.84476300  11.91180900
N   4.55392700  19.63106200  11.69788200
C   4.50534500  21.01429600  11.60020300
C   5.78891600  21.64335000  11.72019800
C   6.88632600  20.89393500  11.94220000
O   5.58614000  17.62849900  11.96013700
O   3.43160400  21.57544500  11.42418400
C   8.03251900  18.74442000  12.35538600
C   8.79232700  18.28698000  11.12504100
C   10.19946300  18.14120500  11.67299700
C   10.27378400  19.29894600  12.65786300
O   10.37166400  16.93562700  12.39679400
O   8.92909700  19.52460500  13.10550700
C   10.85400600  20.54015400  12.02192200
O   11.00659700  21.56498300  12.98695500
P   10.57020900  23.08066600  12.60695500
O   9.13130200  23.10199700  12.20870700
O   11.07470700  23.92580300  13.71954600
O   11.47404700  23.39794300  11.29557100
H   3.68123500  19.13280400  11.58106600
H   5.86136900  22.71703000  11.62988200
H   7.86582600  21.34958600  12.04498300
H   7.68360000  17.89490800  12.94491700
H   8.39985600  17.36352700  10.70574500
H   8.76409400  19.05968300  10.35456700
H   10.95971200  18.23299800  10.89389000
H   10.86992600  19.02026200  13.53083400
H   10.24426600  16.20222600  11.78482600
H   11.83758200  20.29278200  11.60829800
H   10.21116700  20.87116100  11.20119400
H   10.97543200  23.25147600  10.48353900
158
Step=3
Si  0.83069400  16.90557400  8.01468800
Si  3.58317300  15.40748700  7.92596400
Si  3.61590700  12.32904600  7.79103000
O  -0.40084800  16.38370800  8.93966700
O   2.14700000  16.01900000  8.38100000
O   2.16796500  11.70094200  8.17136500
O   3.71000000  13.84500000  8.38400000
O   0.53789800  16.83650500  6.41435700
O   3.80341900  15.57655200  6.31427900
O   3.83928700  12.26217900  6.17566400
Si  0.78811300  20.04103000  8.14019800
Si  3.61505800  24.59026200  7.79387200
Si  3.57880900  21.51322700  7.92857000
O  -0.34534800  20.60226800  9.16263600
O   2.16868500  25.21846500  8.18220100
O   2.14700000  20.90100000  8.38100000
O   1.04500000  18.46000000  8.38400000
O   3.71000000  23.07500000  8.38400000
O   0.24691400  20.19334600  6.61592900
O   3.83416200  24.66464300  6.17782700
O   3.78042000  21.35046400  6.31165500
Si  6.22287700  10.74593300  7.89084400
Si  6.22852900  16.89976800  8.06055000
Si  8.87167700  15.39984000  8.12391600
Si  8.88243600  12.35567400  7.93663000
O   4.81100000  11.40400000  8.38100000
O   4.83515600  16.23048300  8.57570700
O   7.52441400  16.12283800  8.68643800
O   7.47600000  11.67100000  8.38100000
O   6.39573200  9.26341000  8.52986000
O   8.96450600  13.84781300  8.61082900
O   6.19583100  10.56915700  6.27590100
O   6.35632400  16.74886800  6.43742100
O   8.85588600  15.41579700  6.48014800
O   8.99883500  12.51631900  6.31057500
Si  6.22548200  20.01116500  8.02703000
Si  6.22219500  26.17742800  7.89693400
Si  8.88122300  24.57396600  7.92062200
Si  8.86253800  21.52344100  8.07140000
O   4.83927500  20.68331200  8.54751000
O   4.81100000  25.51600000  8.38100000
O   7.47600000  25.24900000  8.38100000
O   7.52502300  20.79102200  8.63725800
O   6.28596600  18.46012900  8.50550300
O   8.96818200  23.07107700  8.56732900
O   6.33662300  20.13839900  6.40139100
O   6.19440300  26.36605900  6.28313500
O   8.99744200  24.44214400  6.29216600
O   8.84279300  21.52097700  6.42934100
O   6.39622600  27.65523000  8.54641700
Si  11.54033400  10.90716700  7.70149700
Si  11.53283100  16.88911500  7.99335200
Si  14.19026700  15.40089400  7.89073700
Si  14.23517100  12.29529000  7.89728100
O   10.14000000  11.40400000  8.38100000
O   10.19095400  16.20964400  8.62871100
O   12.85141200  16.10148300  8.53702700
O   12.80500000  11.67100000  8.38100000
O   11.69966400  9.30199100  7.88443100
O   14.36800000  13.84500000  8.38400000
O   11.52454900  11.21882700  6.09943700
O   11.50196600  16.73650900  6.36571300
O   14.06083900  15.43753900  6.26936700
O   14.36543300  12.11684700  6.28618600
Si  11.53133600  20.03215000  7.97264000
Si  11.54097400  26.02282800  7.71177300
Si  14.23239600  24.62566100  7.89360900
Si  14.18362600  21.52185300  7.90663800
O   10.17759600  20.70872600  8.57536900
O   10.14000000  25.51600000  8.38100000
O   12.80500000  25.24900000  8.38100000
O   12.83397600  20.83826300  8.53270400
O   11.61684400  18.46443800  8.40599400
O   14.36800000  23.07500000  8.38400000
O   11.53962600  20.17888600  6.34383500
O   11.53028500  25.73237000  6.10571000
O   14.35356800  24.78555200  6.28042300
O   14.10867200  21.43027400  6.27395000
O   11.70100500  27.62481000  7.91742200
Si  16.92168500  16.88892400  7.96324500
O   15.47150400  11.46981600  8.55318800
O   15.46900000  16.28600000  8.38100000
O   18.08734700  16.11873900  8.79005800
O   17.19131700  16.72654700  6.36448600
Si  16.71994500  19.88013200  7.65353800
O   15.46900000  20.63400000  8.38100000
O   15.47414200  25.44979000  8.53815800
O   18.04724100  20.81624500  7.69043100
O   17.03200000  18.46000000  8.38400000
O   16.36012900  19.57339100  6.09155700
H  -0.50426300  15.43451300  9.05444700
H   1.70025200  12.07817900  8.92206800
H   0.33829000  15.97786100  6.02915300
H   3.08977900  15.36941000  5.70385500
H   3.18518700  12.64647000  5.58491300
H  -0.06987200  20.82175200  10.05747000
H   1.69780600  24.82646000  8.92334000
H   0.02965700  21.07927300  6.31026100
H   3.17973900  24.27924900  5.58821500
H   3.05598300  21.55930300  5.71469300
H   6.85301200  9.19312500  9.37260800
H   5.50604600  11.08272000  5.83216300
H   5.55999400  16.40952100  5.99762700
H   8.06598500  15.84037100  6.09996700
H   8.87178400  13.41833300  5.97909800
H   5.53835400  20.48468700  5.97078400
H   5.50538600  25.85417700  5.83646500
H   8.85791300  23.55017100  5.94072400
H   8.06258700  21.08551200  6.04442700
H   6.85598600  27.71912300  9.38836000
H   12.08077600  8.97925600  8.70615800
H   10.74077300  11.70941100  5.80316600
H   10.68727900  16.36627800  5.99557800
H   13.23380400  15.82441300  5.94386500
H   13.52703900  11.98496100  5.82290000
H   10.72808500  20.52395000  5.94602100
H   10.74501200  25.25114300  5.79853000
H   13.51630000  24.94867100  5.82463000
H   13.26072900  21.10505100  5.93083800
H   12.06787600  27.93657500  8.74986700
H   15.83232800  11.79958100  9.38083800
H   17.93914900  15.19429500  9.00831200
H   16.81712800  17.42871500  5.81653800
H   15.81366800  25.14909200  9.38581300
H   18.43070600  21.02385000  8.54772200
H   15.61484800  20.08632600  5.74518200
N   6.83477100  19.53713100  12.06657200
C   5.65202100  18.84571400  11.91580100
N   4.55414100  19.63364700  11.70217000
C   4.50793100  21.01675500  11.60301300
C   5.79262500  21.64385100  11.72016100
C   6.88908900  20.89269200  11.94082400
O   5.58310900  17.62956400  11.96578500
O   3.43464800  21.57957100  11.42824300
C   8.03238600  18.74247600  12.35627400
C   8.79239500  18.28545400  11.12581200
C   10.19996000  18.14077300  11.67322800
C   10.27343400  19.29973400  12.65682300
O   10.37383800  16.93569100  12.39779400
O   8.92900600  19.52244600  13.10662900
C   10.84827100  20.54174800  12.01764200
O   10.98075700  21.57570800  12.97603300
P   10.53873800  23.08441100  12.57569700
O   9.11175100  23.08797700  12.13567000
O   11.00135700  23.94097300  13.69842900
O   11.47684900  23.40612400  11.29002200
H   3.68025700  19.13677200  11.58779800
H   5.86691500  22.71723700  11.62773100
H   7.86923000  21.34670000  12.04342600
H   7.68287700  17.89316200  12.94561100
H   8.40028200  17.36197700  10.70632800
H   8.76376400  19.05842700  10.35561100
H   10.95978400  18.23229100  10.89377100
H   10.87240700  19.02392700  13.52871900
H   10.24812500  16.20135800  11.78646500
H   11.83804700  20.30134700  11.61479200
H   10.20988200  20.86028600  11.18895800
H   11.00263700  23.25349100  10.46460500
158
Step=4
Si  0.83054400  16.90548200  8.01541400
Si  3.58312200  15.40744200  7.92576000
Si  3.61555200  12.32892100  7.79164600
O  -0.40045800  16.38365000  8.94141500
O   2.14700000  16.01900000  8.38100000
O   2.16782500  11.70080700  8.17340100
O   3.71000000  13.84500000  8.38400000
O   0.53600700  16.83589800  6.41533600
O   3.80302000  15.57603000  6.31395100
O   3.83774800  12.26121400  6.17609500
Si  0.78821700  20.04097000  8.14027400
Si  3.61471700  24.59035800  7.79448900
Si  3.57874300  21.51326600  7.92844900
O  -0.34536200  20.60208500  9.16286400
O   2.16857500  25.21854500  8.18427900
O   2.14700000  20.90100000  8.38100000
O   1.04500000  18.46000000  8.38400000
O   3.71000000  23.07500000  8.38400000
O   0.24656800  20.19334000  6.61604700
O   3.83263500  24.66552700  6.17825400
O   3.78012500  21.35092300  6.31142500
Si  6.22286200  10.74601800  7.89108400
Si  6.22859500  16.89978600  8.05971100
Si  8.87175600  15.39983400  8.12323000
Si  8.88242800  12.35561100  7.93648200
O   4.81100000  11.40400000  8.38100000
O   4.83526800  16.23052700  8.57500400
O   7.52443600  16.12284700  8.68560400
O   7.47600000  11.67100000  8.38100000
O   6.39564100  9.26349300  8.53045700
O   8.96452700  13.84782000  8.61030400
O   6.19577700  10.56877500  6.27605900
O   6.35623200  16.74900100  6.43645900
O   8.85637100  15.41574600  6.47943700
O   8.99879400  12.51562200  6.31033500
Si  6.22545200  20.01126000  8.02679000
Si  6.22218000  26.17722900  7.89699100
Si  8.88125700  24.57379100  7.92097800
Si  8.86251800  21.52360600  8.07165800
O   4.83899100  20.68301500  8.54718500
O   4.81100000  25.51600000  8.38100000
O   7.47600000  25.24900000  8.38100000
O   7.52490000  20.79110100  8.63714200
O   6.28612400  18.46006800  8.50482000
O   8.96823600  23.07114700  8.56817100
O   6.33656600  20.13871200  6.40110800
O   6.19437200  26.36595900  6.28307200
O   8.99747600  24.44178000  6.29250300
O   8.84292100  21.52152800  6.42953400
O   6.39616100  27.65516400  8.54653300
Si  11.54032100  10.90678400  7.70201800
Si  11.53284400  16.88923600  7.99315800
Si  14.19024500  15.40089300  7.89084400
Si  14.23512100  12.29532300  7.89747500
O   10.14000000  11.40400000  8.38100000
O   10.19088800  16.20970900  8.62813100
O   12.85137100  16.10147500  8.53679800
O   12.80500000  11.67100000  8.38100000
O   11.69973400  9.30165500  7.88633000
O   14.36800000  13.84500000  8.38400000
O   11.52478800  11.21689800  6.09961700
O   11.50244600  16.73704600  6.36540900
O   14.06115700  15.43714700  6.26932200
O   14.36588000  12.11688900  6.28629800
Si  11.53128200  20.03209200  7.97243500
Si  11.54093400  26.02291700  7.71204900
Si  14.23235000  24.62562700  7.89378800
Si  14.18363200  21.52188100  7.90660300
O   10.17762100  20.70878500  8.57509500
O   10.14000000  25.51600000  8.38100000
O   12.80500000  25.24900000  8.38100000
O   12.83400100  20.83813500  8.53236300
O   11.61664900  18.46447200  8.40600300
O   14.36800000  23.07500000  8.38400000
O   11.53985000  20.17827700  6.34354200
O   11.53043100  25.73333000  6.10576300
O   14.35394000  24.78546400  6.28052400
O   14.10894300  21.43077600  6.27380800
O   11.70100100  27.62493500  7.91841200
Si  16.92163800  16.88894300  7.96334100
O   15.47146800  11.46991600  8.55374300
O   15.46900000  16.28600000  8.38100000
O   18.08725900  16.11858400  8.79031500
O   17.19166400  16.72626100  6.36457900
Si  16.72038600  19.88051900  7.65411900
O   15.46900000  20.63400000  8.38100000
O   15.47417600  25.44970700  8.53864000
O   18.04783100  20.81658000  7.69280800
O   17.03200000  18.46000000  8.38400000
O   16.36231900  19.57469300  6.09154400
H  -0.50175800  15.43475000  9.05951200
H   1.69862600  12.08081500  8.92164700
H   0.33745900  15.97710200  6.03019100
H   3.09026800  15.36666300  5.70338700
H   3.18320500  12.64453700  5.58537500
H  -0.06964900  20.82407000  10.05690000
H   1.69580000  24.82318000  8.92228700
H   0.03070200  21.07925100  6.30967300
H   3.17804000  24.28059800  5.58869700
H   3.05647300  21.56152900  5.71428600
H   6.85578900  9.19264300  9.37147500
H   5.50537800  11.08109000  5.83207500
H   5.56007100  16.40943500  5.99666000
H   8.06759100  15.84210600  6.09903900
H   8.87236900  13.41753300  5.97853100
H   5.53824800  20.48468100  5.97040600
H   5.50475600  25.85518500  5.83627800
H   8.85891000  23.54956800  5.94132300
H   8.06362200  21.08463700  6.04443600
H   6.85910500  27.71980900  9.38655300
H   12.08192800  8.97938800  8.70761900
H   10.74146100  11.70756100  5.80262600
H   10.68808200  16.36685000  5.99475300
H   13.23477800  15.82482900  5.94340300
H   13.52800600  11.98413000  5.82249800
H   10.72886700  20.52412800  5.94539900
H   10.74560800  25.25178200  5.79822000
H   13.51706900  24.94875300  5.82423000
H   13.26123700  21.10545600  5.93036100
H   12.06932600  27.93652200  8.75016800
H   15.83367500  11.80061700  9.38028700
H   17.93783800  15.19520900  9.01170800
H   16.81909000  17.42887000  5.81627200
H   15.81533800  25.14769300  9.38504400
H   18.43086200  21.02343500  8.55037600
H   15.61726900  20.08731800  5.74449300
N   6.83098600  19.53063400  12.06770800
C   5.65084200  18.83526400  11.91439800
N   4.55028700  19.61959300  11.70134900
C   4.49907200  21.00269400  11.60634100
C   5.78106200  21.63441900  11.72660600
C   6.88018800  20.88674100  11.94559600
O   5.58631000  17.61868300  11.96023900
O   3.42367400  21.56184200  11.43214600
C   8.03152900  18.74013800  12.35653900
C   8.79182100  18.28439000  11.12586800
C   10.19944500  18.14113100  11.67303800
C   10.27206300  19.30095800  12.65579300
O   10.37446100  16.93678100  12.39841300
O   8.92725900  19.52327500  13.10504400
C   10.84781400  20.54202600  12.01530000
O   10.97947100  21.57799600  12.97183900
P   10.54506700  23.08713100  12.56539800
O   9.12052800  23.09515800  12.11737800
O   11.00428100  23.94471500  13.68937500
O   11.49136700  23.40281700  11.28455300
H   3.67837000  19.11981400  11.58524300
H   5.85143500  22.70828200  11.63696500
H   7.85779400  21.34473700  12.05435100
H   7.68527900  17.89052800  12.94722100
H   8.40055000  17.36075300  10.70604500
H   8.76276500  19.05767500  10.35609900
H   10.95909000  18.23226400  10.89330700
H   10.87070900  19.02593600  13.52815100
H   10.25066100  16.20186100  11.78752200
H   11.83817000  20.30083400  11.61438000
H   10.21074700  20.85944000  11.18525900
H   11.01951900  23.25486600  10.45696600
158
Step=5
Si  0.83034600  16.90535400  8.01639800
Si  3.58303600  15.40737500  7.92547600
Si  3.61505300  12.32874300  7.79251400
O  -0.39993900  16.38355500  8.94371200
O   2.14700000  16.01900000  8.38100000
O   2.16768800  11.70063700  8.17636400
O   3.71000000  13.84500000  8.38400000
O   0.53353500  16.83515300  6.41667100
O   3.80244000  15.57538900  6.31351900
O   3.83558800  12.25990900  6.17672100
Si  0.78835400  20.04089600  8.14039600
Si  3.61431900  24.59047700  7.79524300
Si  3.57872500  21.51329500  7.92831600
O  -0.34533100  20.60179600  9.16324100
O   2.16851500  25.21867500  8.18694000
O   2.14700000  20.90100000  8.38100000
O   1.04500000  18.46000000  8.38400000
O   3.71000000  23.07500000  8.38400000
O   0.24609200  20.19329500  6.61624800
O   3.83083300  24.66658800  6.17879000
O   3.77992500  21.35143500  6.31119000
Si  6.22283700  10.74612000  7.89142900
Si  6.22863100  16.89982800  8.05860700
Si  8.87179600  15.39980000  8.12203400
Si  8.88241400  12.35549000  7.93620500
O   4.81100000  11.40400000  8.38100000
O   4.83537600  16.23057800  8.57405700
O   7.52443700  16.12278600  8.68433600
O   7.47600000  11.67100000  8.38100000
O   6.39550200  9.26362800  8.53131500
O   8.96454800  13.84784400  8.60940800
O   6.19567600  10.56830500  6.27630700
O   6.35600000  16.74937000  6.43519400
O   8.85677900  15.41549500  6.47821400
O   8.99868600  12.51454800  6.30992800
Si  6.22546400  20.01136100  8.02656900
Si  6.22216700  26.17706700  7.89725600
Si  8.88124300  24.57368800  7.92116400
Si  8.86250300  21.52380100  8.07192800
O   4.83885100  20.68290200  8.54691300
O   4.81100000  25.51600000  8.38100000
O   7.47600000  25.24900000  8.38100000
O   7.52483000  20.79113200  8.63702300
O   6.28631700  18.45997800  8.50402600
O   8.96794400  23.07131100  8.56877700
O   6.33654600  20.13906500  6.40083800
O   6.19432900  26.36619000  6.28322600
O   8.99741700  24.44162600  6.29265100
O   8.84326600  21.52186700  6.42971700
O   6.39603900  27.65501600  8.54721200
Si  11.54030800  10.90619700  7.70277900
Si  11.53284900  16.88952900  7.99286100
Si  14.19020700  15.40089800  7.89096200
Si  14.23506000  12.29535300  7.89773400
O   10.14000000  11.40400000  8.38100000
O   10.19074900  16.20975800  8.62704800
O   12.85127800  16.10149300  8.53642100
O   12.80500000  11.67100000  8.38100000
O   11.69982600  9.30117100  7.88908700
O   14.36800000  13.84500000  8.38400000
O   11.52509900  11.21409700  6.09990900
O   11.50318200  16.73826500  6.36494400
O   14.06157000  15.43661300  6.26925300
O   14.36639300  12.11697700  6.28646100
Si  11.53117000  20.03215000  7.97290900
Si  11.54089000  26.02316600  7.71254500
Si  14.23225900  24.62557000  7.89397200
Si  14.18354100  21.52186600  7.90678000
O   10.17770300  20.70928400  8.57537200
O   10.14000000  25.51600000  8.38100000
O   12.80500000  25.24900000  8.38100000
O   12.83410800  20.83795700  8.53256100
O   11.61624000  18.46454700  8.40647700
O   14.36800000  23.07500000  8.38400000
O   11.54009700  20.17768400  6.34392000
O   11.53063400  25.73504700  6.10592100
O   14.35430300  24.78531600  6.28061400
O   14.10887500  21.43122600  6.27388400
O   11.70101900  27.62517200  7.92016800
Si  16.92160900  16.88894500  7.96357900
O   15.47142400  11.46997500  8.55438300
O   15.46900000  16.28600000  8.38100000
O   18.08710600  16.11840000  8.79086600
O   17.19230100  16.72578800  6.36486800
Si  16.72089300  19.88097800  7.65480400
O   15.46900000  20.63400000  8.38100000
O   15.47419100  25.44959700  8.53914900
O   18.04854100  20.81695200  7.69549600
O   17.03200000  18.46000000  8.38400000
O   16.36484700  19.57620500  6.09155700
H  -0.49832100  15.43502500  9.06629600
H   1.69650300  12.08451600  8.92125900
H   0.33658100  15.97609600  6.03153700
H   3.09085400  15.36300300  5.70276500
H   3.18041900  12.64203700  5.58607800
H  -0.06925900  20.82698500  10.05626300
H   1.69311000  24.81875700  8.92067100
H   0.03200900  21.07921300  6.30894200
H   3.17603200  24.28220600  5.58925900
H   3.05738000  21.56449800  5.71372700
H   6.85966800  9.19203300  9.36994400
H   5.50463200  11.07924600  5.83199300
H   5.56009400  16.40939800  5.99539800
H   8.06881400  15.84299600  6.09755100
H   8.87270300  13.41624800  5.97758600