Running on  hostname
Tue Oct 21 12:37:12 PM CEST 2025

                                 *****************
                                 * O   R   C   A *
                                 *****************

                                            #,                                       
                                            ###                                      
                                            ####                                     
                                            #####                                    
                                            ######                                   
                                           ########,                                 
                                     ,,################,,,,,                         
                               ,,#################################,,                 
                          ,,##########################################,,             
                       ,#########################################, ''#####,          
                    ,#############################################,,   '####,        
                  ,##################################################,,,,####,       
                ,###########''''           ''''###############################       
              ,#####''   ,,,,##########,,,,          '''####'''          '####       
            ,##' ,,,,###########################,,,                        '##       
           ' ,,###''''                  '''############,,,                           
         ,,##''                                '''############,,,,        ,,,,,,###''
      ,#''                                            '''#######################'''  
     '                                                          ''''####''''         
             ,#######,   #######,   ,#######,      ##                                
            ,#'     '#,  ##    ##  ,#'     '#,    #''#        ,####,    ,#,          
            ##       ##  ##   ,#'  ##            #'  '#       #'       ,# #          
            ##       ##  #######   ##           ,######,      #####,      #          
            '#,     ,#'  ##    ##  '#,     ,#' ,#      #,     #,   #      #          
             '#######'   ##     ##  '#######'  #'      '#     '####' #    #          



                #########################################################
                #                        -***-                          #
                #          Department of theory and spectroscopy        #
                #                                                       #
                #                      Frank Neese                      #
                #                                                       #
                #     Directorship, Architecture, Infrastructure        #
                #                    SHARK, DRIVERS                     #
                #        Core code/Algorithms in most modules           #
                #                                                       #
                #        Max Planck Institute fuer Kohlenforschung      #
                #                Kaiser Wilhelm Platz 1                 #
                #                 D-45470 Muelheim/Ruhr                 #
                #                      Germany                          #
                #                                                       #
                #                  All rights reserved                  #
                #                        -***-                          #
                #########################################################


                         Program Version 6.1.0  -  RELEASE   -
                                (GIT: $679e74b$)
                          ($2025-06-10 18:02:51 +0200$)


 With contributions from (in alphabetic order):
[Max-Planck-Institut fuer Kohlenforschung]                               
  Daniel Aravena         : Magnetic Suceptibility                        
  Michael Atanasov       : Ab Initio Ligand Field Theory (pilot matlab implementation)
  Alexander A. Auer      : GIAO ZORA, VPT2 properties, NMR spectrum      
  Ute Becker             : All parallelization in ORCA, NUMFREQ, NUMCALC 
  Giovanni Bistoni       : ED, misc. LED, open-shell LED, HFLD           
  Dmytro Bykov           : pre 5.0 version of the SCF Hessian            
  Marcos Casanova-Páez   : Triplet and SCS-CIS(D). UHF-(DLPNO)-IP/EA/STEOM-CCSD. UHF-CVS-IP/STEOM-CCSD   
  Vijay G. Chilkuri      : MRCI spin determinant printing, contributions to CSF-ICE 
  Pauline Colinet        : FMM embedding                                 
  Dipayan Datta          : RHF DLPNO-CCSD density                        
  Achintya Kumar Dutta   : EOM-CC, STEOM-CC                              
  Nicolas Foglia         : Exact transition moments, OPA infrastructure, MCD improvements    
  Dmitry Ganyushin       : Spin-Orbit,Spin-Spin,Magnetic field MRCI      
  Miquel Garcia-Rates    : C-PCM and meta-GGA Hessian, CCSD/C-PCM, Gaussian charge scheme 
  Tiago L. C. Gouveia    : GS-ROHF, GS-ROCIS                             
  Yang Guo               : DLPNO-NEVPT2, F12-NEVPT2, CIM, IAO-localization        
  Andreas Hansen         : Spin unrestricted coupled pair/coupled cluster methods 
  Ingolf Harden          : AUTO-CI MPn and infrastructure                
  Benjamin Helmich-Paris : MC-RPA, TRAH-(SCF,CASSCF), AVAS, COSX integrals, SCF dyn. polar., MC-PDFT, srDFT 
  Lee Huntington         : MR-EOM, pCC                                   
  Robert Izsak           : Overlap fitted RIJCOSX, COSX-SCS-MP3, EOM     
  Riya Kayal             : Wick's Theorem for AUTO-CI, AUTO-CI UHF-CCSDT 
  Emily Kempfer          : AUTO-CI RHF CISDT and CCSDT, approximate NEVPT4
  Christian Kollmar      : KDIIS, OOCD, Brueckner-CCSD(T), CCSD density, CASPT2, CASPT2-K, improved NEVPT2 
  Axel Koslowski         : Symmetry handling                             
  Simone Kossmann        : meta-GGA functionals, TD-DFT gradient, OOMP2, (MP2 Hessian; deprecated post 5.0) 
  Lucas Lang             : DCDCAS, Hyperfine gauge corrections, ICE-SOC+SSC
  Marvin Lechner         : AUTO-CI (C++ implementation), FIC-MRCC        
  Spencer Leger          : CASSCF response                               
  Dagmar Lenk            : GEPOL surface, SMD, ORCA-2-JSON               
  Dimitrios Liakos       : Extrapolation schemes; Compound Job, Property file
  Dimitrios Manganas     : Further ROCIS development; embedding schemes. LFT, Crystal Embedding 
  Dimitrios Pantazis     : SARC Basis sets                               
  Anastasios Papadopoulos: AUTO-CI, single reference methods and gradients 
  Taras Petrenko         : pre 6.0 DFT Hessian and TD-DFT gradient,  ECA, NRVS 
  Petra Pikulova         : Analytic Raman intensities                    
  Peter Pinski           : DLPNO-MP2, DLPNO-MP2 Gradient                 
  Shashank Vittal Rao    : ES-AILFT, MagRelax                            
  Christoph Reimann      : Effective Core Potentials                     
  Marius Retegan         : Local ZFS, SOC                                
  Christoph Riplinger    : Optimizer, TS searches, QM/MM, DLPNO-CCSD(T), (RO)-DLPNO pert. Triples 
  Michael Roemelt        : Original ROCIS implementation, recursive CI coupling coefficients
  Masaaki Saitow         : Open-shell DLPNO-CCSD energy and density      
  Barbara Sandhoefer     : DKH picture change effects                    
  Yorick L. A. Schmerwitz: GMF and freeze-and-release deltaSCF, NEB S-IDPP initial path                    
  Kantharuban Sivalingam : CASSCF convergence/infrastructure, NEVPT2, NEVPT3, NEVPT4(SD), FIC-MRCI and CEPA variants
  Bernardo de Souza      : ESD, SOC TD-DFT                               
  Georgi L. Stoychev     : AutoAux, RI-MP2 NMR, DLPNO-MP2 response, X2C  
  Van Anh Tran           : RI-MP2 g-tensors                              
  Willem Van den Heuvel  : Paramagnetic NMR                              
  Zikuan Wang            : NOTCH, Electric field optimization            
  Frank Wennmohs         : Technical directorship and infrastructure     
  Hang Xu                : AUTO-CI-Response properties                   
                                                                         
[FACCTs GmbH]                                                            
  Markus Bursch, Nicolas Foglia, Miquel Garcia-Rates, Ingolf Harden, Hagen Neugebauer, Anastasios Papadopoulos, 
  Christoph Riplinger, Bernardo de Souza, Georgi L. Stoychev                                                    
                                                                 
  APM, various basis sets, CI-OPT, improved COSX, DLPNO-Multilevel,           
  DOCKER, DRACO, updates on ESD, Fragmentator, GOAT, IRC, LR-CPCM, L-BFGS, MBIS, meta-GGA TD-DFT gradient, ML-optimized integration grids, 
  MM, NACMEs, nearIR, NEB, NEB-TS, NL-DFT gradient (VV10), 2- and 3-layer-ONIOM, interface openCOSMO-RS, QMMM,   
  Crystal-QMMM, RESP, rigid body optimization, SF, symmetry and pop. for TD-DFT, various functionals, SOLVATOR                                   
                                                                         
[Other institutions]                                                     
  V. Asgeirsson          : NEB                                           
  Christoph Bannwarth    : sTDA-DFT, sTD-DFT, PBEh-3c, B97-3c, D3        
  Giovanni Bistoni       : ETS/NOCV, ADLD/ADEX, COVALED                  
  Martin Brehm           : Molecular dynamics                            
  Ronald Cardenas        : ETS/NOCV                                      
  Martina Colucci        : COVALED                                       
  Sebastian Ehlert       : rSCAN, r2SCAN, r2SCAN-3c, D4, dhf basis sets  
  Marvin Friede          : D4 for Fr, Ra, Ac-Lr                          
  Lars Goerigk           : TD-DFT with DH, B97 family of functionals     
  Stefan Grimme          : VdW corrections, initial TS optimization, DFT functionals, gCP, sTDA/sTD-DF 
  Waldemar Hujo          : DFT-NL                                        
  H. Jonsson             : NEB                                           
  Holger Kruse           : gCP                                           
  Marcel Mueller         : wB97X-3c, vDZP basis set                      
  Hagen Neugebauer       : wr2SCAN, Native XTB                           
  Gianluca Regni         : ADLD/ADEX                                     
  Tobias Risthaus        : pre 6.0 range-separated hybrid DFT and stability analysis
  Lukas Wittmann         : regularized MP2, r2SCAN double-hybrids, wr2SCAN        
                                                                         
We gratefully acknowledge several colleagues who have allowed us to      
interface, adapt or use parts of their codes:                            
  Ed Valeev, F. Pavosevic, A. Kumar             : LibInt (2-el integral package), F12 methods 
  Garnet Chan, S. Sharma, J. Yang, R. Olivares  : DMRG                   
  Ulf Ekstrom                                   : XCFun DFT Library      
  Mihaly Kallay                                 : mrcc  (arbitrary order and MRCC methods)
  Frank Weinhold                                : gennbo (NPA and NBO analysis)           
  Simon Mueller                                 : openCOSMO-RS                            
  Christopher J. Cramer and Donald G. Truhlar   : smd solvation model                     
  S Lehtola, MJT Oliveira, MAL Marques          : LibXC Library                           
  Liviu Ungur et al                             : ANISO software                          


 Your calculation uses the libint2 library for the computation of 2-el integrals
 For citations please refer to: http://libint.valeyev.net

 Your ORCA version has been built with support for libXC version: 7.0.0
 For citations please refer to: https://libxc.gitlab.io

 This ORCA versions uses:
   CBLAS   interface :  Fast vector & matrix operations
   LAPACKE interface :  Fast linear algebra routines
   SCALAPACK package :  Parallel linear algebra routines
   Shared memory     :  Shared parallel matrices
   BLAS/LAPACK       :  OpenBLAS 0.3.29  USE64BITINT DYNAMIC_ARCH NO_AFFINITY Haswell SINGLE_THREADED
        Core in use  :  Haswell
   Copyright (c) 2011-2014, The OpenBLAS Project


  ***********************************
  * Starting time: Tue Oct 21 12:37:13 2025
  * Host name:     node225.cluster
  * Process ID:    280138
  * Working dir.:  /data/scratch/54376616
  ***********************************

NOTE: MaxCore=2500 MB was set to SCF,MP2,MDCI,CIPSI,MRCI,RASCI and CIS
      => If you want to overwrite this, your respective input block should be placed after the MaxCore statement
Your calculation utilizes the atom-pairwise dispersion correction
with the Becke-Johnson damping scheme (D3BJ)


Warning: RI is on but no J-basis has been assigned. Assigning Def2/J (nothing to worry about!)
================================================================================

----- Orbital basis set information -----
Your calculation utilizes the basis: ma-def2-TZVP
   F. Weigend and R. Ahlrichs, Phys. Chem. Chem. Phys. 7, 3297 (2005).
   J. Zheng, X. Xu and D. G. Truhlar, Theor. Chem. Acc. 128, 295 (2011).

----- AuxJ basis set information -----
Your calculation utilizes the auxiliary basis: def2/J
   H-Rn: F. Weigend, Phys. Chem. Chem. Phys. 8, 1057 (2006).
   Fr-Lr: K. Eichkorn, F. Weigend, O. Treutler, R. Ahlrichs; Theor. Chem. Acc. 97, 119 (1997).

================================================================================
                                        WARNINGS
                       Please study these warnings very carefully!
================================================================================


WARNING: Geometry Optimization
  ===> : Switching off AutoStart
         For restart on a previous wavefunction, please use MOREAD

================================================================================
                                       INPUT FILE
================================================================================
NAME = frame_6_ma.inp
|  1> ! PBE0 D3BJ CPCM(water) Opt ma-def2-TZVP TRAH
|  2> 
|  3> %pal
|  4>   nprocs 8
|  5> end
|  6> 
|  7> %maxcore 2500
|  8> 
|  9> %scf
| 10>   # A safety mechanism for difficult convergence
| 11>   MaxIter 500  # Increase max iterations from default 125
| 12> end
| 13> 
| 14> %geom
| 15>   Constraints
| 16>     { C 4 C }
| 17>     { C 6 C }
| 18>     { C 15 C }
| 19>     { C 16 C }
| 20>     { C 17 C }
| 21>     { C 25 C }
| 22>     { C 28 C }
| 23>     { C 40 C }
| 24>     { C 41 C }
| 25>     { C 54 C }
| 26>     { C 57 C }
| 27>     { C 59 C }
| 28>     { C 69 C }
| 29>     { C 70 C }
| 30>     { C 73 C }
| 31>     { C 81 C }
| 32>     { C 85 C }
| 33>     { C 88 C }
| 34>   end
| 35> end
| 36> 
| 37> * xyz -1 1
| 38>   Si          0.83099667555847     16.90573289770150      8.01335567383395
| 39>   Si          3.58311067897717     15.40745050690593      7.92611780727550
| 40>   Si          3.61676420276693     12.32940383912527      7.78967722834459
| 41>   O          -0.40171866919731     16.38374183556259      8.93599472464791
| 42>   O           2.14699989053989     16.01899995829261      8.38099998069379
| 43>   O           2.16834886353078     11.70128514878706      8.16671988358694
| 44>   O           3.71000009623629     13.84500002216281      8.38399999895833
| 45>   O           0.54187874618928     16.83812557411968      6.41260268967102
| 46>   O           3.80313234797605     15.57678948132446      6.31461259648720
| 47>   O           3.84323767030890     12.26507718642161      6.17483522413195
| 48>   Si          0.78774977900521     20.04117502416388      8.14063041019275
| 49>   Si          3.61576152411450     24.59002497748195      7.79277168368129
| 50>   Si          3.57856479613341     21.51347366262230      7.92796703864174
| 51>   O          -0.34485370127825     20.60204792125509      9.16367140380087
| 52>   O           2.16904879811519     25.21828998978923      8.17829910882160
| 53>   O           2.14699987774872     20.90100011079888      8.38099996847596
| 54>   O           1.04500001406318     18.45999995620715      8.38400002704022
| 55>   O           3.71000009943366     23.07499995688948      8.38400001552043
| 56>   O           0.24665140642856     20.19340446810201      6.61667897092841
| 57>   O           3.83763598842681     24.66202525046332      6.17722171749062
| 58>   O           3.77961043416440     21.35119077825866      6.31109638422128
| 59>   Si          6.22288900163639     10.74551214326061      7.89091641478248
| 60>   Si          6.22838326503144     16.89965227402531      8.05981759841268
| 61>   Si          8.87164269988197     15.39980906868331      8.12362704810790
| 62>   Si          8.88246204274210     12.35560866189041      7.93648634122650
| 63>   O           4.81099992249680     11.40399995407838      8.38100000694979
| 64>   O           4.83511279488738     16.23067512473406      8.57572763427054
| 65>   O           7.52444479647822     16.12308894043909      8.68600380991555
| 66>   O           7.47600002227168     11.67100002166609      8.38099997858303
| 67>   O           6.39570950843909      9.26340398156198      8.53005931898780
| 68>   O           8.96446669202217     13.84787562970753      8.61075104229056
| 69>   O           6.19564099474453     10.56906287669504      6.27630125684463
| 70>   O           6.35576479188655     16.74737492173086      6.43704342821263
| 71>   O           8.85560959558620     15.41619633105291      6.47996861325594
| 72>   O           8.99906727523176     12.51690053572797      6.31061652352492
| 73>   Si          6.22531275283714     20.01118840557809      8.02471105951457
| 74>   Si          6.22220296754084     26.17793735187491      7.89717852276568
| 75>   Si          8.88119261365596     24.57444957468745      7.91962256912634
| 76>   Si          8.86247131013621     21.52328656691916      8.06832417638844
| 77>   O           4.83944317142831     20.68338119142213      8.54602873826717
| 78>   O           4.81099990293113     25.51600005755251      8.38100000203097
| 79>   O           7.47600006288062     25.24899992701741      8.38100001422087
| 80>   O           7.52509446849889     20.79102311268950      8.63461935555220
| 81>   O           6.28577915838809     18.46035740797895      8.50386737593651
| 82>   O           8.96840920586653     23.07073489209045      8.56461951435552
| 83>   O           6.33558733503090     20.13860562629962      6.39916237625347
| 84>   O           6.19418355456249     26.36649910111259      6.28372746906184
| 85>   O           8.99742701953720     24.44359594544003      6.29122866586123
| 86>   O           8.84249677852853     21.52030063348391      6.42639484113957
| 87>   O           6.39614136897502     27.65520424584626      8.54705506600821
| 88>   Si         11.54038008775706     10.90749128216401      7.70093959540611
| 89>   Si         11.53294925768596     16.88876235406568      7.99240296741938
| 90>   Si         14.19039563186127     15.40082632938486      7.89039734241877
| 91>   Si         14.23518738538558     12.29524709259583      7.89693088133974
| 92>   O          10.14000006129543     11.40400000725488      8.38100004087889
| 93>   O          10.19109165029283     16.20958597841036      8.62839682217343
| 94>   O          12.85142736105988     16.10150544337186      8.53678240346719
| 95>   O          12.80499993574056     11.67100002406255      8.38099996719364
| 96>   O          11.69957028389686      9.30243070625481      7.88218351933739
| 97>   O          14.36800008362736     13.84500001364797      8.38399993468022
| 98>   O          11.52425325800168     11.22100855797585      6.09940865895960
| 99>   O          11.50149009401041     16.73502437773412      6.36505642591600
|100>   O          14.06041115257978     15.43769587802129      6.26938711955311
|101>   O          14.36390133159605     12.11729272385583      6.28600583902280
|102>   Si         11.53163947691114     20.03209218557988      7.97068565774858
|103>   Si         11.54106170851360     26.02306107011152      7.71168582003971
|104>   Si         14.23235476555469     24.62566933316057      7.89309639816978
|105>   Si         14.18367152667346     21.52190760460299      7.90647114383984
|106>   O          10.17723071954253     20.70812749049910      8.57269123126748
|107>   O          10.14000003458712     25.51600009027460      8.38099996976537
|108>   O          12.80499992393992     25.24900000953388      8.38100001268719
|109>   O          12.83357241536823     20.83854506213423      8.53207173002169
|110>   O          11.61730084262524     18.46434584022319      8.40415453869768
|111>   O          14.36800000664931     23.07499991744018      8.38399998090178
|112>   O          11.54045580177661     20.17962761547764      6.34208339172064
|113>   O          11.53011553251911     25.73214326518502      6.10592947326204
|114>   O          14.35156625771907     24.78464919931176      6.27998135999702
|115>   O          14.10837777986979     21.43050755508472      6.27398205920498
|116>   O          11.70104257340850     27.62473425693556      7.91700242980066
|117>   Si         16.92172204094146     16.88895266540208      7.96304248579029
|118>   O          15.47146742107246     11.46966633859930      8.55198861408260
|119>   O          15.46900005871515     16.28600009467060      8.38099996105833
|120>   O          18.08754111593011     16.11891753683209      8.78907382137829
|121>   O          17.19036277053083     16.72744921251537      6.36436470848915
|122>   Si         16.71946400310140     19.87967291544789      7.65283922513317
|123>   O          15.46900010274649     20.63400009565894      8.38100001290523
|124>   O          15.47416140219390     25.45013319076489      8.53616335221691
|125>   O          18.04642994457474     20.81579954881933      7.68713197668924
|126>   O          17.03199985995055     18.45999995229954      8.38399999524961
|127>   O          16.35710916337431     19.57174894512485      6.09182295807549
|128>   H          -0.50832000880101     15.43456890028791      9.04500570544940
|129>   H           1.70287016543970     12.07401151315313      8.92065789547986
|130>   H           0.34167574936192     15.98008144457377      6.02718521313290
|131>   H           3.08814427496852     15.37251803684078      5.70526325659719
|132>   H           3.19163309838118     12.65342628960142      5.58451298921540
|133>   H          -0.06938616271316     20.81603373043047     10.05949764566836
|134>   H           1.70148537804923     24.83194879743433      8.92407894382256
|135>   H           0.02666376328078     21.07893779671591      6.31284205885239
|136>   H           3.18545099976373     24.27283455061403      5.58815302755719
|137>   H           3.05435656923949     21.55917795945826      5.71532785077993
|138>   H           6.84830529114527      9.19464094158048      9.37510587374390
|139>   H           5.50719447292803     11.08459326300803      5.83340128133920
|140>   H           5.55844506077619     16.40981726263451      5.99800318809180
|141>   H           8.06712449072199     15.84357439649692      6.10033875238880
|142>   H           8.87184530427488     13.41891538917469      5.97983621785531
|143>   H           5.53617465153839     20.48278447025259      5.96935093092219
|144>   H           5.50671521623197     25.85248881027531      5.83775060219956
|145>   H           8.85684449733669     23.55215051265482      5.93940152980929
|146>   H           8.06386271047404     21.08182759567838      6.04205240716633
|147>   H           6.85061432811098     27.71739473261578      9.39164176389949
|148>   H          12.07892976011653      8.97962065048167      8.70433965614646
|149>   H          10.73995852143140     11.71101461445965      5.80441963698051
|150>   H          10.68608169912234     16.36593697395128      5.99592751565311
|151>   H          13.23184115975045     15.82144319898519      5.94490040260287
|152>   H          13.52433615731192     11.99024244498970      5.82397077996309
|153>   H          10.72842342722324     20.52335301446679      5.94454334068022
|154>   H          10.74433307872436     25.25187992895231      5.79939687034775
|155>   H          13.51297671586861     24.94330878952577      5.82555618591368
|156>   H          13.25811928959520     21.11141718501564      5.93138759065900
|157>   H          12.06562735125278     27.93595787599734      8.75030630313627
|158>   H          15.82967840679736     11.79772129499558      9.38107115308019
|159>   H          17.94107241371742     15.19334553548265      9.00211452273572
|160>   H          16.81263897829559     17.42829804522108      5.81763494214621
|161>   H          15.81088155791968     25.15215688582098      9.38552731063846
|162>   H          18.43007286412508     21.02441493369661      8.54378571020263
|163>   H          15.61194069805366     20.08537656519620      5.74689307983800
|164>   N           6.83043854006519     19.53322057534152     12.06247970022126
|165>   C           5.65391837684892     18.83401130642447     11.89887629235358
|166>   N           4.55129452317168     19.61528761757351     11.68528118108257
|167>   C           4.49505786528694     20.99888902602370     11.59543102238395
|168>   C           5.77460575084401     21.63453424031276     11.72578026307120
|169>   C           6.87531265112977     20.89018897495214     11.94859147928559
|170>   O           5.59418670472658     17.61721927129578     11.93838723987415
|171>   O           3.41933567258301     21.55486066800718     11.41749378795877
|172>   C           8.03187754825612     18.74423092173981     12.35218948383133
|173>   C           8.79350530934271     18.28929486099690     11.12210820799787
|174>   C          10.20061439758511     18.14812004326993     11.67093292617797
|175>   C          10.27017297505933     19.30819175990797     12.65340953664504
|176>   O          10.37469913557493     16.94468327475776     12.39710933070207
|177>   O           8.92498492113870     19.52820530608554     13.10200756464903
|178>   C          10.84284483811679     20.55092487610515     12.01398918099671
|179>   O          10.96522926353188     21.58743522246815     12.97009975933212
|180>   P          10.51804668637854     23.09278863342038     12.56257226372083
|181>   O           9.09616129827233     23.08560254480829     12.10702891123743
|182>   O          10.96386545927773     23.95388515418859     13.68687432799543
|183>   O          11.46780640616186     23.41518494991637     11.28504791001101
|184>   H           3.68232558205000     19.11277185231822     11.56058880715554
|185>   H           5.84118853611418     22.70912622714142     11.64236397383258
|186>   H           7.85117736509553     21.35134585732155     12.06331621739740
|187>   H           7.68647470659562     17.89329331745961     12.94188711625754
|188>   H           8.40394879034714     17.36449921304793     10.70316065715136
|189>   H           8.76305939375200     19.06160915678153     10.35137617383103
|190>   H          10.96094255771597     18.24056916779386     10.89172887438820
|191>   H          10.86885029234213     19.03446127781265     13.52629042716307
|192>   H          10.24853790726824     16.21069775051714     11.78579704176162
|193>   H          11.83576845989042     20.31338009877807     11.61667337992260
|194>   H          10.20726838552255     20.86423430699377     11.18110170563200
|195>   H          11.00682764125612     23.24702264263302     10.45556675651493
|196> *
|197> 
|198>                          ****END OF INPUT****
================================================================================

                       *****************************
                       * Geometry Optimization Run *
                       *****************************

Geometry optimization settings:
Update method            Update   .... BFGS
Choice of coordinates    CoordSys .... (2022) Redundant Internals
Initial Hessian          InHess   .... Almloef's Model
Max. no of cycles        MaxIter  .... 474

Convergence Tolerances:
Energy Change            TolE     ....  5.0000e-06 Eh
Max. Gradient            TolMAXG  ....  3.0000e-04 Eh/bohr
RMS Gradient             TolRMSG  ....  1.0000e-04 Eh/bohr
Max. Displacement        TolMAXD  ....  4.0000e-03 bohr
RMS Displacement         TolRMSD  ....  2.0000e-03 bohr
Strict Convergence                .... False

------------------------------------------------------------------------------
                        ORCA OPTIMIZATION COORDINATE SETUP
------------------------------------------------------------------------------

The optimization will be done in redundant internal coordinates (2022)
Making redundant internal coordinates   ...  (2022 redundants) done
Evaluating the initial hessian          ...  (Almloef) done
Evaluating the coordinates              ...  done
Calculating the B-matrix                .... done
Calculating the G-matrix                .... done
Will constrain atom 4 coordinate 1 
Will constrain atom 4 coordinate 2 
Will constrain atom 4 coordinate 3 
Will constrain atom 6 coordinate 1 
Will constrain atom 6 coordinate 2 
Will constrain atom 6 coordinate 3 
Will constrain atom 15 coordinate 1 
Will constrain atom 15 coordinate 2 
Will constrain atom 15 coordinate 3 
Will constrain atom 16 coordinate 1 
Will constrain atom 16 coordinate 2 
Will constrain atom 16 coordinate 3 
Will constrain atom 17 coordinate 1 
Will constrain atom 17 coordinate 2 
Will constrain atom 17 coordinate 3 
Will constrain atom 25 coordinate 1 
Will constrain atom 25 coordinate 2 
Will constrain atom 25 coordinate 3 
Will constrain atom 28 coordinate 1 
Will constrain atom 28 coordinate 2 
Will constrain atom 28 coordinate 3 
Will constrain atom 40 coordinate 1 
Will constrain atom 40 coordinate 2 
Will constrain atom 40 coordinate 3 
Will constrain atom 41 coordinate 1 
Will constrain atom 41 coordinate 2 
Will constrain atom 41 coordinate 3 
Will constrain atom 54 coordinate 1 
Will constrain atom 54 coordinate 2 
Will constrain atom 54 coordinate 3 
Will constrain atom 57 coordinate 1 
Will constrain atom 57 coordinate 2 
Will constrain atom 57 coordinate 3 
Will constrain atom 59 coordinate 1 
Will constrain atom 59 coordinate 2 
Will constrain atom 59 coordinate 3 
Will constrain atom 69 coordinate 1 
Will constrain atom 69 coordinate 2 
Will constrain atom 69 coordinate 3 
Will constrain atom 70 coordinate 1 
Will constrain atom 70 coordinate 2 
Will constrain atom 70 coordinate 3 
Will constrain atom 73 coordinate 1 
Will constrain atom 73 coordinate 2 
Will constrain atom 73 coordinate 3 
Will constrain atom 81 coordinate 1 
Will constrain atom 81 coordinate 2 
Will constrain atom 81 coordinate 3 
Will constrain atom 85 coordinate 1 
Will constrain atom 85 coordinate 2 
Will constrain atom 85 coordinate 3 
Will constrain atom 88 coordinate 1 
Will constrain atom 88 coordinate 2 
Will constrain atom 88 coordinate 3 
The number of degrees of freedom        ....  892
Storing new coordinates                 .... done

    -----------------------------------------------------------------
                    Redundant Internal Coordinates


    -----------------------------------------------------------------
         Definition                    Initial Value    Approx d2E/dq
    -----------------------------------------------------------------
      1. B(O   3,Si  0)                  1.6258         1.022816   
      2. B(O   4,Si  1)                  1.6258         1.022816   
      3. B(O   4,Si  0)                  1.6289         1.011339   
      4. B(O   5,Si  2)                  1.6231         1.032955   
      5. B(O   6,Si  1)                  1.6331         0.995870   
      6. B(O   6,Si  2)                  1.6306         1.004951   
      7. B(O   7,Si  0)                  1.6281         1.014483   
      8. B(O   8,Si  1)                  1.6352         0.988037   
      9. B(O   9,Si  2)                  1.6319         1.000211   
     10. B(O  13,Si 10)                  1.6260         1.022057   
     11. B(O  14,Si 11)                  1.6237         1.030941   
     12. B(O  15,Si 12)                  1.6216         1.038654   
     13. B(O  15,Si 10)                  1.6262         1.021300   
     14. B(O  16,Si 10)                  1.6203         1.043633   
     15. B(O  16,Si  0)                  1.6121         1.075664   
     16. B(O  17,Si 12)                  1.6321         0.999691   
     17. B(O  17,Si 11)                  1.6290         1.010871   
     18. B(O  18,Si 10)                  1.6243         1.028538   
     19. B(O  19,Si 11)                  1.6323         0.998782   
     20. B(O  20,Si 12)                  1.6374         0.980313   
     21. B(Si 22,Si  1)                  3.0401         0.027511   
     22. B(Si 23,Si 22)                  3.0398         0.027538   
     23. B(O  25,Si  2)                  1.6224         1.035726   
     24. B(O  25,Si 21)                  1.6332         0.995635   
     25. B(O  26,Si  1)                  1.6332         0.995655   
     26. B(O  26,Si 22)                  1.6294         1.009546   
     27. B(O  27,Si 22)                  1.6355         0.987038   
     28. B(O  27,Si 23)                  1.6292         1.010175   
     29. B(O  28,Si 21)                  1.6331         0.995883   
     30. B(O  28,Si 24)                  1.6262         1.021555   
     31. B(O  29,Si 21)                  1.6233         1.032471   
     32. B(O  30,Si 23)                  1.6292         1.010107   
     33. B(O  30,Si 24)                  1.6396         0.972440   
     34. B(O  31,Si 21)                  1.6245         1.027992   
     35. B(O  32,Si 22)                  1.6349         0.989396   
     36. B(O  33,Si 23)                  1.6438         0.957412   
     37. B(O  34,Si 24)                  1.6380         0.978074   
     38. B(Si 38,Si 35)                  3.0402         0.027496   
     39. B(O  39,Si 35)                  1.6261         1.021748   
     40. B(O  39,Si 12)                  1.6312         1.002776   
     41. B(O  40,Si 36)                  1.6321         0.999541   
     42. B(O  40,Si 11)                  1.6224         1.035957   
     43. B(O  41,Si 36)                  1.6337         0.993626   
     44. B(O  41,Si 37)                  1.6256         1.023823   
     45. B(O  42,Si 38)                  1.6265         1.020333   
     46. B(O  42,Si 35)                  1.6339         0.993014   
     47. B(O  43,Si 35)                  1.6243         1.028614   
     48. B(O  43,Si 22)                  1.6237         1.031000   
     49. B(O  44,Si 37)                  1.6385         0.976189   
     50. B(O  44,Si 38)                  1.6285         1.012702   
     51. B(O  45,Si 35)                  1.6343         0.991630   
     52. B(O  46,Si 36)                  1.6247         1.027171   
     53. B(O  47,Si 37)                  1.6378         0.978913   
     54. B(O  48,Si 38)                  1.6421         0.963640   
     55. B(O  49,Si 36)                  1.6232         1.032592   
     56. B(Si 50,Si 24)                  3.0360         0.027929   
     57. B(Si 53,Si 50)                  3.0375         0.027774   
     58. B(O  54,Si 24)                  1.6385         0.976443   
     59. B(O  54,Si 50)                  1.6340         0.992451   
     60. B(O  55,Si 23)                  1.6283         1.013446   
     61. B(O  55,Si 51)                  1.6329         0.996608   
     62. B(O  56,Si 51)                  1.6293         1.009989   
     63. B(O  56,Si 52)                  1.6437         0.957988   
     64. B(O  57,Si 50)                  1.6263         1.021238   
     65. B(O  57,Si 53)                  1.6338         0.993148   
     66. B(O  58,Si 50)                  1.6231         1.033178   
     67. B(O  59,Si 52)                  1.6419         0.964241   
     68. B(O  59,Si 53)                  1.6299         1.007598   
     69. B(O  60,Si 50)                  1.6320         0.999861   
     70. B(O  61,Si 51)                  1.6349         0.989317   
     71. B(O  62,Si 52)                  1.6266         1.019811   
     72. B(O  63,Si 53)                  1.6258         1.022828   
     73. B(Si 65,Si 37)                  3.0359         0.027937   
     74. B(Si 66,Si 65)                  3.0379         0.027734   
     75. B(O  68,Si 38)                  1.6271         1.018047   
     76. B(O  68,Si 64)                  1.6291         1.010729   
     77. B(O  69,Si 37)                  1.6383         0.977068   
     78. B(O  69,Si 65)                  1.6334         0.994687   
     79. B(O  70,Si 65)                  1.6263         1.021238   
     80. B(O  70,Si 66)                  1.6322         0.999322   
     81. B(O  71,Si 64)                  1.6311         1.003135   
     82. B(O  71,Si 67)                  1.6374         0.980201   
     83. B(O  72,Si 51)                  1.6307         1.004755   
     84. B(O  72,Si 64)                  1.6288         1.011636   
     85. B(O  73,Si 66)                  1.6322         0.999290   
     86. B(O  73,Si 67)                  1.6353         0.987957   
     87. B(O  74,Si 64)                  1.6353         0.987865   
     88. B(O  75,Si 65)                  1.6319         1.000140   
     89. B(O  76,Si 66)                  1.6253         1.024781   
     90. B(O  77,Si 67)                  1.6368         0.982496   
     91. B(O  78,Si 65)                  1.6227         1.034704   
     92. B(O  80,Si 53)                  1.6245         1.027743   
     93. B(O  80,O   5)                 13.3107         0.010000   
     94. B(O  81,Si 52)                  1.6307         1.004828   
     95. B(O  81,Si 79)                  1.6275         1.016694   
     96. B(O  82,Si 79)                  1.6231         1.033171   
     97. B(O  83,Si 79)                  1.6291         1.010542   
     98. B(Si 84,Si 79)                  3.0136         0.030325   
     99. B(Si 84,Si 67)                  3.0317         0.028365   
    100. B(O  85,Si 84)                  1.6318         1.000499   
    101. B(O  85,Si 67)                  1.6327         0.997419   
    102. B(O  86,Si 66)                  1.6234         1.032069   
    103. B(O  87,Si 84)                  1.6243         1.028586   
    104. B(O  88,Si 79)                  1.6302         1.006524   
    105. B(O  88,Si 84)                  1.6272         1.017722   
    106. B(O  89,Si 84)                  1.6318         1.000496   
    107. B(H  90,O   3)                  0.9613         0.517401   
    108. B(H  91,O   5)                  0.9613         0.517558   
    109. B(H  92,O   7)                  0.9617         0.516718   
    110. B(H  93,O   8)                  0.9614         0.517337   
    111. B(H  94,O   9)                  0.9612         0.517690   
    112. B(H  95,O  13)                  0.9613         0.517401   
    113. B(H  96,O  14)                  0.9613         0.517514   
    114. B(H  97,O  18)                  0.9617         0.516705   
    115. B(H  98,O  19)                  0.9612         0.517757   
    116. B(H  99,O  20)                  0.9613         0.517386   
    117. B(H 100,O  29)                  0.9611         0.517897   
    118. B(H 101,O   9)                  2.0685         0.010000   
    119. B(H 101,O  31)                  0.9674         0.505985   
    120. B(H 102,O   8)                  1.9686         0.012789   
    121. B(H 102,O  32)                  0.9708         0.499761   
    122. B(H 103,O  32)                  1.9644         0.012986   
    123. B(H 103,O  33)                  0.9739         0.494073   
    124. B(H 104,O  33)                  2.0590         0.010000   
    125. B(H 104,O  34)                  0.9691         0.502788   
    126. B(H 105,O  20)                  1.9891         0.011861   
    127. B(H 105,O  45)                  0.9707         0.499915   
    128. B(H 106,O  19)                  2.0780         0.010000   
    129. B(H 106,O  46)                  0.9673         0.506154   
    130. B(H 107,O  48)                  2.0894         0.010000   
    131. B(H 107,O  47)                  0.9686         0.503753   
    132. B(H 108,O  45)                  2.0010         0.011352   
    133. B(H 108,O  48)                  0.9728         0.496158   
    134. B(H 109,O  49)                  0.9611         0.517833   
    135. B(H 110,O  58)                  0.9613         0.517516   
    136. B(H 111,O  34)                  1.9840         0.012083   
    137. B(H 111,O  60)                  0.9707         0.499929   
    138. B(H 112,O  61)                  0.9682         0.504564   
    139. B(H 112,O  33)                  2.1182         0.010000   
    140. B(H 113,O  62)                  0.9691         0.502931   
    141. B(H 113,O  61)                  2.0013         0.011340   
    142. B(H 114,O  63)                  0.9667         0.507335   
    143. B(H 114,O  60)                  2.1605         0.010000   
    144. B(H 115,O  74)                  0.9673         0.506282   
    145. B(H 115,O  48)                  2.1870         0.010000   
    146. B(H 116,O  75)                  0.9706         0.500093   
    147. B(H 116,O  47)                  1.9867         0.011966   
    148. B(H 117,O  76)                  0.9669         0.506930   
    149. B(H 117,O  75)                  2.1523         0.010000   
    150. B(H 118,O  77)                  0.9706         0.500037   
    151. B(H 118,O  74)                  1.9968         0.011529   
    152. B(H 119,O  78)                  0.9613         0.517400   
    153. B(H 120,O  80)                  0.9609         0.518256   
    154. B(H 121,O  82)                  0.9610         0.518048   
    155. B(H 122,O  83)                  0.9658         0.508987   
    156. B(H 122,O  89)                  2.2084         0.010000   
    157. B(H 123,O  86)                  0.9610         0.517982   
    158. B(H 124,O  87)                  0.9615         0.517024   
    159. B(H 124,O   5)                 18.7485         0.010000   
    160. B(H 124,O  80)                 10.0023         0.010000   
    161. B(H 125,O  89)                  0.9685         0.503901   
    162. B(H 125,O  77)                  2.0852         0.010000   
    163. B(C 127,N 126)                  1.3784         0.584058   
    164. B(N 128,C 127)                  1.3681         0.606399   
    165. B(C 129,N 128)                  1.3877         0.564437   
    166. B(C 129,O  39)                  3.0850         0.010000   
    167. B(C 130,C 129)                  1.4347         0.530237   
    168. B(C 131,N 126)                  1.3625         0.619134   
    169. B(C 131,C 130)                  1.3473         0.730877   
    170. B(O 132,C 127)                  1.2189         1.049200   
    171. B(O 133,C 129)                  1.2239         1.030075   
    172. B(C 134,N 126)                  1.4663         0.422885   
    173. B(C 135,C 134)                  1.5166         0.392392   
    174. B(C 136,C 135)                  1.5169         0.391941   
    175. B(C 137,C 136)                  1.5218         0.385004   
    176. B(O 138,C 136)                  1.4163         0.508066   
    177. B(O 139,C 134)                  1.4052         0.529278   
    178. B(O 139,C 137)                  1.4350         0.474359   
    179. B(C 140,C 137)                  1.5104         0.401520   
    180. B(O 141,C 140)                  1.4154         0.509662   
    181. B(P 142,O 141)                  1.6224         0.800960   
    182. B(O 143,P 142)                  1.4931         1.287922   
    183. B(O 144,P 142)                  1.4847         1.328317   
    184. B(O 145,P 142)                  1.6242         0.795620   
    185. B(H 146,N 128)                  1.0115         0.430295   
    186. B(H 147,C 130)                  1.0799         0.373740   
    187. B(H 148,C 131)                  1.0854         0.366208   
    188. B(H 149,C 134)                  1.0914         0.358260   
    189. B(H 150,C 135)                  1.0874         0.363507   
    190. B(H 150,O  27)                  2.5266         0.010000   
    191. B(H 150,O  55)                  2.9719         0.010000   
    192. B(H 150,O  43)                  3.2441         0.010000   
    193. B(H 150,Si 23)                  3.2761         0.010000   
    194. B(H 151,C 135)                  1.0915         0.358090   
    195. B(H 151,O  42)                  2.7333         0.010000   
    196. B(H 151,O  68)                  2.8062         0.010000   
    197. B(H 151,O  43)                  3.1483         0.010000   
    198. B(H 151,O   5)                 10.1211         0.010000   
    199. B(H 151,O  80)                 10.2897         0.010000   
    200. B(H 151,H 124)                 10.0285         0.010000   
    201. B(H 152,C 136)                  1.0926         0.356659   
    202. B(H 152,O  72)                  2.5824         0.010000   
    203. B(H 152,O  55)                  3.1369         0.010000   
    204. B(H 152,Si 51)                  3.2497         0.010000   
    205. B(H 152,O 138)                  2.0710         0.010000   
    206. B(H 153,C 137)                  1.0933         0.355785   
    207. B(H 154,O 138)                  0.9635         0.513292   
    208. B(H 154,O  55)                  3.1579         0.010000   
    209. B(H 155,C 140)                  1.0955         0.352859   
    210. B(H 155,O  71)                  3.2842         0.010000   
    211. B(H 155,O 141)                  2.0525         0.010000   
    212. B(H 156,C 140)                  1.0935         0.355452   
    213. B(H 156,O  68)                  2.6133         0.010000   
    214. B(H 156,O 141)                  2.0732         0.010000   
    215. B(H 156,P 142)                  2.6404         0.010000   
    216. B(H 157,O 145)                  0.9638         0.512838   
    217. B(H 157,O  44)                  2.7860         0.010000   
    218. B(H 157,O  69)                  3.1943         0.010000   
    219. B(H 157,O  68)                  3.2679         0.010000   
    220. B(H 157,P 142)                  2.1684         0.023031   
    221. A(O   3,Si  0,O  16)          106.2433         0.613589   
    222. A(O   7,Si  0,O  16)          106.8379         0.612618   
    223. A(O   3,Si  0,O   4)          108.0412         0.606318   
    224. A(O   4,Si  0,O   7)          110.0464         0.605361   
    225. A(O   4,Si  0,O  16)          111.4508         0.612251   
    226. A(O   3,Si  0,O   7)          114.2043         0.606682   
    227. A(O   4,Si  1,Si 22)          124.8664         0.338166   
    228. A(O   6,Si  1,O  26)          108.1301         0.601386   
    229. A(O   4,Si  1,O   6)          110.4910         0.604517   
    230. A(O   6,Si  1,O   8)          111.4031         0.600496   
    231. A(O   8,Si  1,Si 22)           82.8443         0.336223   
    232. A(O   6,Si  1,Si 22)          112.9341         0.336665   
    233. A(O   4,Si  1,O   8)          110.8314         0.603596   
    234. A(Si 22,Si  1,O  26)           21.2556         0.336653   
    235. A(O   4,Si  1,O  26)          112.1026         0.604491   
    236. A(O   8,Si  1,O  26)          103.6884         0.600471   
    237. A(O   5,Si  2,O   6)          109.0283         0.606731   
    238. A(O   9,Si  2,O  25)          103.6519         0.606491   
    239. A(O   6,Si  2,O   9)          112.9150         0.602970   
    240. A(O   6,Si  2,O  25)          110.8070         0.607045   
    241. A(O   5,Si  2,O  25)          110.5764         0.610278   
    242. A(O   5,Si  2,O   9)          109.7822         0.606178   
    243. A(Si  0,O   3,H  90)          117.7376         0.436114   
    244. A(Si  0,O   4,Si  1)          148.7873         0.606318   
    245. A(Si  2,O   5,H  91)          117.6619         0.436914   
    246. A(Si  1,O   6,Si  2)          141.5007         0.602465   
    247. A(Si  0,O   7,H  92)          117.9088         0.435369   
    248. A(Si  1,O   8,H  93)          120.1694         0.433397   
    249. A(Si  2,O   9,H  94)          119.8498         0.434406   
    250. A(O  15,Si 10,O  16)          111.1642         0.609837   
    251. A(O  16,Si 10,O  18)          106.5742         0.610670   
    252. A(O  13,Si 10,O  16)          110.6514         0.609924   
    253. A(O  13,Si 10,O  18)          109.0218         0.608209   
    254. A(O  13,Si 10,O  15)          107.8678         0.607380   
    255. A(O  15,Si 10,O  18)          111.5651         0.608122   
    256. A(O  14,Si 11,O  19)          109.8189         0.605782   
    257. A(O  14,Si 11,O  40)          110.4564         0.610074   
    258. A(O  17,Si 11,O  40)          110.8919         0.607761   
    259. A(O  14,Si 11,O  17)          108.9795         0.607191   
    260. A(O  17,Si 11,O  19)          113.1019         0.603488   
    261. A(O  19,Si 11,O  40)          103.5054         0.606350   
    262. A(O  17,Si 12,O  39)          108.5883         0.602658   
    263. A(O  20,Si 12,O  39)          103.2267         0.600387   
    264. A(O  17,Si 12,O  20)          111.1531         0.600031   
    265. A(O  15,Si 12,O  17)          110.7565         0.606761   
    266. A(O  15,Si 12,O  20)          110.2933         0.604472   
    267. A(O  15,Si 12,O  39)          112.6013         0.607122   
    268. A(Si 10,O  13,H  95)          117.6115         0.436056   
    269. A(Si 11,O  14,H  96)          117.5216         0.436753   
    270. A(Si 10,O  15,Si 12)          153.6698         0.609273   
    271. A(Si  0,O  16,Si 10)          152.2763         0.615987   
    272. A(Si 11,O  17,Si 12)          141.6058         0.603593   
    273. A(Si 10,O  18,H  97)          117.3169         0.436447   
    274. A(Si 11,O  19,H  98)          119.7682         0.434305   
    275. A(Si 12,O  20,H  99)          119.8601         0.432793   
    276. A(O  25,Si 21,O  29)          110.0000         0.605586   
    277. A(O  25,Si 21,O  28)          110.1703         0.601385   
    278. A(O  25,Si 21,O  31)          109.1207         0.605078   
    279. A(O  28,Si 21,O  29)          108.5163         0.605616   
    280. A(O  28,Si 21,O  31)          111.8825         0.605107   
    281. A(O  29,Si 21,O  31)          107.0954         0.609339   
    282. A(Si  1,Si 22,O  32)           88.7637         0.336300   
    283. A(O  26,Si 22,O  43)          109.7724         0.607044   
    284. A(O  27,Si 22,O  32)          105.9062         0.599624   
    285. A(Si  1,Si 22,O  27)          118.2497         0.336166   
    286. A(Si  1,Si 22,Si 23)          121.0219         0.208731   
    287. A(Si 23,Si 22,O  43)          115.9630         0.338670   
    288. A(Si  1,Si 22,O  26)           21.3072         0.337431   
    289. A(O  32,Si 22,O  43)          110.9922         0.604686   
    290. A(O  26,Si 22,O  27)          111.1888         0.601960   
    291. A(Si 23,Si 22,O  32)           84.6711         0.336353   
    292. A(Si 23,Si 22,O  26)          122.2978         0.337485   
    293. A(Si  1,Si 22,O  43)          120.9707         0.338616   
    294. A(O  27,Si 22,O  43)          108.8855         0.604407   
    295. A(O  26,Si 22,O  32)          110.0395         0.602237   
    296. A(Si 23,Si 22,O  27)           21.3493         0.336220   
    297. A(Si 22,Si 23,O  55)          117.7579         0.337702   
    298. A(Si 22,Si 23,O  30)          121.7227         0.337516   
    299. A(O  30,Si 23,O  55)          109.5639         0.605099   
    300. A(O  27,Si 23,O  33)          109.4302         0.598506   
    301. A(Si 22,Si 23,O  33)           88.0293         0.334520   
    302. A(Si 22,Si 23,O  27)           21.4361         0.337520   
    303. A(O  30,Si 23,O  33)          107.9997         0.598498   
    304. A(O  27,Si 23,O  55)          110.0148         0.605107   
    305. A(O  33,Si 23,O  55)          108.2345         0.598879   
    306. A(O  27,Si 23,O  30)          111.5175         0.604722   
    307. A(O  34,Si 24,Si 50)           84.7003         0.336500   
    308. A(O  28,Si 24,Si 50)          125.2815         0.338949   
    309. A(O  28,Si 24,O  30)          108.3014         0.601603   
    310. A(O  30,Si 24,Si 50)          114.9768         0.336177   
    311. A(O  28,Si 24,O  54)          110.1906         0.602080   
    312. A(O  30,Si 24,O  54)          112.2503         0.596390   
    313. A(O  34,Si 24,O  54)          105.7739         0.597053   
    314. A(Si 50,Si 24,O  54)           21.8866         0.336406   
    315. A(O  30,Si 24,O  34)          108.3617         0.596581   
    316. A(O  28,Si 24,O  34)          111.9841         0.602274   
    317. A(Si  2,O  25,Si 21)          139.1971         0.605955   
    318. A(Si  1,O  26,Si 22)          137.4373         0.602970   
    319. A(Si 22,O  27,Si 23)          137.2146         0.602032   
    320. A(Si 21,O  28,Si 24)          145.1052         0.604374   
    321. A(Si 21,O  29,H 100)          117.4944         0.436928   
    322. A(Si 23,O  30,Si 24)          137.8306         0.600297   
    323. A(Si 21,O  31,H 101)          114.1482         0.434760   
    324. A(Si 22,O  32,H 102)          114.6643         0.430820   
    325. A(Si 23,O  33,H 103)          113.7056         0.427409   
    326. A(Si 24,O  34,H 104)          114.9033         0.430397   
    327. A(Si 38,Si 35,O  39)          121.9428         0.338075   
    328. A(Si 38,Si 35,O  43)          115.9985         0.338453   
    329. A(O  39,Si 35,O  43)          109.3800         0.608182   
    330. A(O  39,Si 35,O  42)          111.1626         0.604060   
    331. A(O  39,Si 35,O  45)          110.1306         0.603897   
    332. A(O  42,Si 35,O  45)          106.2845         0.600584   
    333. A(O  43,Si 35,O  45)          111.4291         0.604678   
    334. A(Si 38,Si 35,O  42)           21.1255         0.336472   
    335. A(O  42,Si 35,O  43)          108.4195         0.604841   
    336. A(Si 38,Si 35,O  45)           85.2367         0.336394   
    337. A(O  40,Si 36,O  41)          110.1928         0.601576   
    338. A(O  41,Si 36,O  46)          111.9212         0.604749   
    339. A(O  40,Si 36,O  49)          110.0642         0.606058   
    340. A(O  41,Si 36,O  49)          108.4617         0.605364   
    341. A(O  46,Si 36,O  49)          107.0865         0.609259   
    342. A(O  40,Si 36,O  46)          109.0597         0.605443   
    343. A(O  44,Si 37,O  69)          112.0658         0.596905   
    344. A(O  47,Si 37,O  69)          105.7473         0.597226   
    345. A(O  41,Si 37,O  44)          108.3673         0.602307   
    346. A(O  41,Si 37,O  47)          112.1298         0.602631   
    347. A(O  44,Si 37,O  47)          108.3178         0.597122   
    348. A(O  41,Si 37,O  69)          110.2298         0.602412   
    349. A(Si 65,Si 37,O  69)           21.8527         0.336457   
    350. A(O  41,Si 37,Si 65)          125.3663         0.339089   
    351. A(O  44,Si 37,Si 65)          114.7228         0.336407   
    352. A(O  47,Si 37,Si 65)           84.7123         0.336563   
    353. A(Si 35,Si 38,O  42)           21.2261         0.337997   
    354. A(O  48,Si 38,O  68)          108.5948         0.600151   
    355. A(O  42,Si 38,O  68)          109.3253         0.606808   
    356. A(O  44,Si 38,O  68)          109.2089         0.605929   
    357. A(Si 35,Si 38,O  44)          122.2354         0.337574   
    358. A(O  42,Si 38,O  44)          112.0353         0.606191   
    359. A(Si 35,Si 38,O  68)          117.1411         0.337871   
    360. A(Si 35,Si 38,O  48)           88.5216         0.334796   
    361. A(O  42,Si 38,O  48)          109.7138         0.600411   
    362. A(O  44,Si 38,O  48)          107.8933         0.599542   
    363. A(Si 12,O  39,Si 35)          138.3876         0.605201   
    364. A(Si 12,O  39,C 129)          103.6621         0.188704   
    365. A(Si 35,O  39,C 129)          117.0207         0.189128   
    366. A(Si 11,O  40,Si 36)          139.5544         0.606439   
    367. A(Si 36,O  41,Si 37)          144.6179         0.604368   
    368. A(Si 35,O  42,Si 38)          137.6485         0.603898   
    369. A(Si 22,O  43,Si 35)          146.6951         0.609243   
    370. A(Si 37,O  44,Si 38)          138.4693         0.601040   
    371. A(Si 35,O  45,H 105)          114.3619         0.431018   
    372. A(Si 36,O  46,H 106)          114.1070         0.434724   
    373. A(Si 37,O  47,H 107)          115.1112         0.430611   
    374. A(Si 38,O  48,H 108)          113.9309         0.428229   
    375. A(Si 36,O  49,H 109)          117.4758         0.436928   
    376. A(Si 24,Si 50,O  57)          115.1134         0.338931   
    377. A(Si 53,Si 50,O  57)           21.3484         0.338616   
    378. A(O  54,Si 50,O  57)          110.4713         0.603936   
    379. A(Si 24,Si 50,O  60)           88.6164         0.337737   
    380. A(Si 53,Si 50,O  60)           89.1014         0.337424   
    381. A(O  54,Si 50,O  60)          109.9727         0.601476   
    382. A(O  57,Si 50,O  60)          109.1389         0.604803   
    383. A(O  58,Si 50,O  60)          107.4889         0.606162   
    384. A(Si 24,Si 50,Si 53)          123.6268         0.209373   
    385. A(Si 24,Si 50,O  54)           21.9490         0.337319   
    386. A(Si 24,Si 50,O  58)          123.2911         0.339589   
    387. A(Si 53,Si 50,O  54)          126.4875         0.337006   
    388. A(O  57,Si 50,O  58)          109.9568         0.608644   
    389. A(O  54,Si 50,O  58)          109.7587         0.605292   
    390. A(Si 53,Si 50,O  58)          110.9519         0.339274   
    391. A(O  55,Si 51,O  56)          109.5054         0.603132   
    392. A(O  55,Si 51,O  61)          109.4367         0.600731   
    393. A(O  56,Si 51,O  61)          107.6209         0.602279   
    394. A(O  55,Si 51,O  72)          110.2454         0.602528   
    395. A(O  56,Si 51,O  72)          109.9161         0.604081   
    396. A(O  61,Si 51,O  72)          110.0714         0.601675   
    397. A(O  56,Si 52,O  59)          111.9528         0.593236   
    398. A(O  56,Si 52,O  62)          108.4902         0.599671   
    399. A(O  59,Si 52,O  62)          109.2515         0.600424   
    400. A(O  56,Si 52,O  81)          106.7999         0.597963   
    401. A(O  59,Si 52,O  81)          109.8229         0.598713   
    402. A(O  62,Si 52,O  81)          110.4981         0.605219   
    403. A(Si 50,Si 53,O  57)           21.2444         0.337045   
    404. A(O  57,Si 53,O  59)          110.2474         0.602452   
    405. A(Si 50,Si 53,O  63)           87.4952         0.338704   
    406. A(O  57,Si 53,O  63)          108.7259         0.604199   
    407. A(O  59,Si 53,O  63)          113.1858         0.605886   
    408. A(Si 50,Si 53,O  80)          117.9689         0.338975   
    409. A(O  57,Si 53,O  80)          110.6413         0.604758   
    410. A(Si 50,Si 53,O  59)          121.7344         0.337858   
    411. A(O  59,Si 53,O  80)          107.4995         0.606447   
    412. A(O  63,Si 53,O  80)          106.4789         0.608207   
    413. A(Si 24,O  54,Si 50)          136.1644         0.598734   
    414. A(Si 23,O  55,Si 51)          138.7629         0.603530   
    415. A(Si 51,O  56,Si 52)          137.2077         0.598554   
    416. A(Si 50,O  57,Si 53)          137.4072         0.604017   
    417. A(Si 50,O  58,H 110)          117.7940         0.436924   
    418. A(Si 52,O  59,Si 53)          143.3534         0.599031   
    419. A(Si 50,O  60,H 111)          113.7771         0.431661   
    420. A(Si 51,O  61,H 112)          115.5662         0.431554   
    421. A(Si 52,O  62,H 113)          114.2670         0.433663   
    422. A(Si 53,O  63,H 114)          114.7843         0.434575   
    423. A(O  68,Si 64,O  71)          109.3447         0.603978   
    424. A(O  68,Si 64,O  72)          110.1698         0.604962   
    425. A(O  71,Si 64,O  72)          110.0175         0.604083   
    426. A(O  68,Si 64,O  74)          109.5768         0.602193   
    427. A(O  71,Si 64,O  74)          107.0889         0.601318   
    428. A(O  72,Si 64,O  74)          110.5845         0.602297   
    429. A(Si 37,Si 65,O  69)           21.9212         0.337460   
    430. A(Si 66,Si 65,O  69)          126.3436         0.337050   
    431. A(Si 37,Si 65,O  70)          115.1910         0.338946   
    432. A(O  69,Si 65,O  70)          110.5024         0.604198   
    433. A(Si 37,Si 65,O  75)           88.6509         0.337768   
    434. A(Si 66,Si 65,O  75)           89.0087         0.337358   
    435. A(O  69,Si 65,O  75)          110.0047         0.601769   
    436. A(O  70,Si 65,O  75)          108.9855         0.604836   
    437. A(Si 37,Si 65,O  78)          123.2776         0.339688   
    438. A(Si 66,Si 65,O  70)           21.2412         0.338534   
    439. A(Si 66,Si 65,O  78)          111.0471         0.339275   
    440. A(O  69,Si 65,O  78)          109.8237         0.605728   
    441. A(O  70,Si 65,O  78)          109.9448         0.608818   
    442. A(Si 37,Si 65,Si 66)          123.5460         0.209341   
    443. A(O  75,Si 65,O  78)          107.5248         0.606367   
    444. A(Si 65,Si 66,O  70)           21.1606         0.337312   
    445. A(Si 65,Si 66,O  73)          121.9115         0.337310   
    446. A(O  70,Si 66,O  73)          110.2189         0.602210   
    447. A(Si 65,Si 66,O  76)           87.7487         0.338730   
    448. A(O  70,Si 66,O  76)          108.8733         0.605145   
    449. A(O  73,Si 66,O  76)          112.6653         0.605141   
    450. A(Si 65,Si 66,O  86)          117.8865         0.339130   
    451. A(O  70,Si 66,O  86)          110.8911         0.605973   
    452. A(O  73,Si 66,O  86)          107.4453         0.605969   
    453. A(O  76,Si 66,O  86)          106.7007         0.608925   
    454. A(O  71,Si 67,O  73)          112.1938         0.598654   
    455. A(O  71,Si 67,O  77)          108.6527         0.598015   
    456. A(O  73,Si 67,O  77)          110.4551         0.598924   
    457. A(O  71,Si 67,Si 84)          119.7057         0.337490   
    458. A(O  73,Si 67,Si 84)          116.3982         0.337934   
    459. A(O  77,Si 67,Si 84)           85.6866         0.337622   
    460. A(O  71,Si 67,O  85)          108.1257         0.599754   
    461. A(O  73,Si 67,O  85)          110.0533         0.600666   
    462. A(O  77,Si 67,O  85)          107.2013         0.600025   
    463. A(Si 84,Si 67,O  85)           21.7611         0.338471   
    464. A(Si 38,O  68,Si 64)          139.9208         0.605701   
    465. A(Si 37,O  69,Si 65)          136.2261         0.599068   
    466. A(Si 65,O  70,Si 66)          137.5982         0.604740   
    467. A(Si 64,O  71,Si 67)          137.1361         0.600415   
    468. A(Si 51,O  72,Si 64)          149.3239         0.604271   
    469. A(Si 66,O  73,Si 67)          143.6226         0.600883   
    470. A(Si 64,O  74,H 115)          115.9031         0.431704   
    471. A(Si 65,O  75,H 116)          113.8528         0.431708   
    472. A(Si 66,O  76,H 117)          114.7645         0.434662   
    473. A(Si 67,O  77,H 118)          114.2481         0.430321   
    474. A(Si 65,O  78,H 119)          117.8147         0.437023   
    475. A(Si 84,Si 79,O  88)           22.2880         0.342795   
    476. A(O  81,Si 79,O  82)          109.5532         0.608119   
    477. A(O  81,Si 79,O  83)          111.2527         0.605523   
    478. A(O  82,Si 79,O  83)          109.5082         0.607406   
    479. A(O  81,Si 79,Si 84)          109.5241         0.343373   
    480. A(O  82,Si 79,Si 84)          124.8496         0.344300   
    481. A(O  83,Si 79,Si 84)           90.4835         0.343024   
    482. A(O  81,Si 79,O  88)          110.5552         0.605058   
    483. A(O  82,Si 79,O  88)          106.0935         0.606939   
    484. A(O  83,Si 79,O  88)          109.7419         0.604350   
    485. A(Si 53,O  80,H 120)          117.2654         0.436622   
    486. A(Si 52,O  81,Si 79)          145.4628         0.604861   
    487. A(Si 79,O  82,H 121)          117.4054         0.437005   
    488. A(Si 79,O  83,H 122)          114.7765         0.433885   
    489. A(Si 67,Si 84,O  85)           21.7729         0.338646   
    490. A(Si 79,Si 84,O  85)          117.6618         0.342450   
    491. A(Si 67,Si 84,O  87)          111.6758         0.340215   
    492. A(Si 79,Si 84,O  87)          120.9945         0.344043   
    493. A(O  85,Si 84,O  87)          110.4989         0.605715   
    494. A(Si 67,Si 84,O  88)          126.5595         0.339612   
    495. A(Si 79,Si 84,O  88)           22.3315         0.343431   
    496. A(O  85,Si 84,O  88)          110.4862         0.604475   
    497. A(O  87,Si 84,O  88)          109.6594         0.607715   
    498. A(Si 67,Si 84,O  89)           89.8002         0.338645   
    499. A(Si 79,Si 84,O  89)           85.7622         0.342450   
    500. A(O  85,Si 84,O  89)          110.1162         0.602487   
    501. A(O  87,Si 84,O  89)          108.0805         0.605715   
    502. A(Si 67,Si 84,Si 79)          125.8100         0.212221   
    503. A(O  88,Si 84,O  89)          107.9301         0.604475   
    504. A(Si 67,O  85,Si 84)          136.4660         0.602129   
    505. A(Si 66,O  86,H 123)          117.4289         0.436911   
    506. A(Si 84,O  87,H 124)          118.0214         0.436499   
    507. A(Si 79,O  88,Si 84)          135.3805         0.605176   
    508. A(Si 84,O  89,H 125)          114.2961         0.432324   
    509. A(C 127,N 126,C 131)          121.5618         0.423748   
    510. A(C 127,N 126,C 134)          116.7370         0.396075   
    511. A(C 131,N 126,C 134)          121.6987         0.400156   
    512. A(N 126,C 127,N 128)          114.6306         0.422177   
    513. A(N 126,C 127,O 132)          122.9825         0.466195   
    514. A(N 128,C 127,O 132)          122.3868         0.469413   
    515. A(C 127,N 128,C 129)          127.7454         0.419610   
    516. A(C 127,N 128,H 146)          115.3346         0.356979   
    517. A(C 129,N 128,H 146)          116.9070         0.352664   
    518. A(N 128,C 129,C 130)          113.5618         0.412379   
    519. A(N 128,C 129,O 133)          119.8655         0.461734   
    520. A(C 130,C 129,O 133)          126.5724         0.459547   
    521. A(O  39,C 129,N 128)           87.5645         0.168315   
    522. A(O  39,C 129,C 130)           92.0378         0.167850   
    523. A(O  39,C 129,O 133)           90.0497         0.179884   
    524. A(C 129,C 130,C 131)          119.9260         0.434702   
    525. A(C 129,C 130,H 147)          119.2659         0.345883   
    526. A(C 131,C 130,H 147)          120.8081         0.365237   
    527. A(N 126,C 131,C 130)          122.4898         0.444098   
    528. A(N 126,C 131,H 148)          116.3544         0.351653   
    529. A(C 130,C 131,H 148)          121.1487         0.363967   
    530. A(N 126,C 134,C 135)          114.3712         0.371968   
    531. A(N 126,C 134,O 139)          109.0271         0.389306   
    532. A(C 135,C 134,O 139)          106.3182         0.386712   
    533. A(N 126,C 134,H 149)          105.4848         0.328746   
    534. A(C 135,C 134,H 149)          111.3021         0.326675   
    535. A(O 139,C 134,H 149)          110.3547         0.341238   
    536. A(C 134,C 135,C 136)          101.5547         0.369450   
    537. A(C 134,C 135,H 150)          112.8099         0.327459   
    538. A(C 136,C 135,H 150)          113.1125         0.327396   
    539. A(C 134,C 135,H 151)          110.2702         0.326650   
    540. A(C 136,C 135,H 151)          110.3156         0.326588   
    541. A(H 150,C 135,H 151)          108.6450         0.291014   
    542. A(C 135,C 136,C 137)          101.8314         0.368246   
    543. A(C 135,C 136,O 138)          112.2469         0.383891   
    544. A(C 137,C 136,O 138)          108.1254         0.382702   
    545. A(C 135,C 136,H 152)          112.3092         0.326372   
    546. A(C 137,C 136,H 152)          111.3527         0.325415   
    547. A(O 138,C 136,H 152)          110.6108         0.338661   
    548. A(C 136,C 137,O 139)          106.0130         0.378174   
    549. A(C 136,C 137,C 140)          111.7920         0.369776   
    550. A(O 139,C 137,C 140)          111.2003         0.380936   
    551. A(C 136,C 137,H 153)          110.4641         0.325284   
    552. A(O 139,C 137,H 153)          107.5853         0.334675   
    553. A(C 140,C 137,H 153)          109.6571         0.327541   
    554. A(C 136,O 138,H 154)          107.8117         0.356945   
    555. A(C 134,O 139,C 137)          110.0877         0.397216   
    556. A(C 137,C 140,O 141)          110.4471         0.385718   
    557. A(C 137,C 140,H 155)          108.5891         0.327095   
    558. A(O 141,C 140,H 155)          108.9895         0.338233   
    559. A(C 137,C 140,H 156)          109.7438         0.327490   
    560. A(O 141,C 140,H 156)          110.7889         0.338646   
    561. A(H 155,C 140,H 156)          108.2205         0.289324   
    562. A(C 140,O 141,P 142)          119.0750         0.462842   
    563. A(O 141,P 142,O 143)          109.5518         0.590033   
    564. A(O 141,P 142,O 144)          105.3766         0.593548   
    565. A(O 143,P 142,O 144)          121.3182         0.650812   
    566. A(O 141,P 142,O 145)          102.7427         0.538283   
    567. A(O 143,P 142,O 145)          108.5325         0.589275   
    568. A(O 144,P 142,O 145)          107.7531         0.592784   
    569. A(P 142,O 145,H 157)          111.2622         0.411181   
    570. D(H  90,O   3,Si  0,O   4)    -42.7854         0.013377   
    571. D(H  90,O   3,Si  0,O   7)     80.0117         0.013377   
    572. D(Si  1,O   4,Si  0,O   3)    153.9993         0.013095   
    573. D(Si  1,O   4,Si  0,O   7)     28.6998         0.013095   
    574. D(Si  0,O   4,Si  1,O   6)   -135.7124         0.014468   
    575. D(Si  0,O   4,Si  1,O   8)    -11.7246         0.014468   
    576. D(H  91,O   5,Si  2,O   6)    -23.1409         0.016784   
    577. D(H  91,O   5,Si  2,O   9)   -147.3174         0.016784   
    578. D(Si  2,O   6,Si  1,O   8)    -21.0669         0.013750   
    579. D(Si  1,O   6,Si  2,O   5)   -100.8592         0.012939   
    580. D(Si  2,O   6,Si  1,O   4)    102.5913         0.013750   
    581. D(Si  1,O   6,Si  2,O   9)     21.4488         0.012939   
    582. D(H  92,O   7,Si  0,O   3)    -59.5256         0.013172   
    583. D(H  92,O   7,Si  0,O   4)     62.1743         0.013172   
    584. D(H  93,O   8,Si  1,O   4)    -44.2909         0.014498   
    585. D(H  93,O   8,Si  1,O   6)     79.1739         0.014498   
    586. D(H  94,O   9,Si  2,O   5)     54.4621         0.013864   
    587. D(H  94,O   9,Si  2,O   6)    -67.4225         0.013864   
    588. D(H  95,O  13,Si 10,O  15)    -40.9348         0.013358   
    589. D(H  95,O  13,Si 10,O  16)     80.8607         0.013358   
    590. D(H  96,O  14,Si 11,O  17)     22.0122         0.013580   
    591. D(H  96,O  14,Si 11,O  19)    146.4144         0.013580   
    592. D(Si 12,O  15,Si 10,O  13)   -155.9154         0.013340   
    593. D(Si 12,O  15,Si 10,O  16)     82.6070         0.013340   
    594. D(Si 10,O  15,Si 12,O  17)    135.7038         0.013774   
    595. D(Si 10,O  15,Si 12,O  20)     12.2275         0.013774   
    596. D(Si 10,O  16,Si  0,O   3)    -93.9225         0.014728   
    597. D(Si 10,O  16,Si  0,O   4)    148.6220         0.014728   
    598. D(Si  0,O  16,Si 10,O  13)     99.5936         0.013900   
    599. D(Si  0,O  16,Si 10,O  15)   -140.5699         0.013900   
    600. D(Si 11,O  17,Si 12,O  20)     20.6699         0.012811   
    601. D(Si 11,O  17,Si 12,O  15)   -102.3098         0.012811   
    602. D(Si 12,O  17,Si 11,O  19)    -21.6606         0.013083   
    603. D(Si 12,O  17,Si 11,O  14)    100.7858         0.013083   
    604. D(H  97,O  18,Si 10,O  13)     59.3870         0.013520   
    605. D(H  97,O  18,Si 10,O  15)    -59.6402         0.013520   
    606. D(H  98,O  19,Si 11,O  14)    -54.8005         0.013826   
    607. D(H  98,O  19,Si 11,O  17)     67.1767         0.013826   
    608. D(H  99,O  20,Si 12,O  15)     44.1316         0.013346   
    609. D(H  99,O  20,Si 12,O  17)    -79.1140         0.013346   
    610. D(Si 23,Si 22,Si  1,O   6)     18.9784         0.010000   
    611. D(O  26,Si 22,Si  1,O   4)     58.2528         0.010000   
    612. D(Si 23,Si 22,Si  1,O   4)    158.2730         0.010000   
    613. D(O  30,Si 23,Si 22,Si  1)    -22.0099         0.010000   
    614. D(O  27,Si 23,Si 22,Si  1)    -88.7721         0.010000   
    615. D(O  27,Si 23,Si 22,O  26)    -63.7277         0.010000   
    616. D(Si  2,O  25,Si 21,O  28)     98.4315         0.012714   
    617. D(Si  2,O  25,Si 21,O  29)   -141.9820         0.012714   
    618. D(Si 21,O  25,Si  2,O   5)    133.2388         0.013700   
    619. D(Si 21,O  25,Si  2,O   6)   -105.7501         0.013700   
    620. D(Si 22,O  26,Si  1,O   6)    106.8148         0.013744   
    621. D(Si 22,O  26,Si  1,O   4)   -131.1434         0.013744   
    622. D(Si  1,O  26,Si 22,O  27)   -113.7735         0.015109   
    623. D(Si  1,O  26,Si 22,Si 23)    -93.2791         0.015109   
    624. D(Si 22,O  27,Si 23,O  33)     -3.4179         0.016073   
    625. D(Si 23,O  27,Si 22,Si  1)    103.4387         0.015371   
    626. D(Si 22,O  27,Si 23,O  30)   -122.8438         0.016073   
    627. D(Si 23,O  27,Si 22,O  26)    125.6175         0.015371   
    628. D(Si 24,O  28,Si 21,O  29)    104.8971         0.012720   
    629. D(Si 24,O  28,Si 21,O  25)   -134.6198         0.012720   
    630. D(Si 21,O  28,Si 24,O  34)     21.2257         0.014434   
    631. D(Si 21,O  28,Si 24,O  30)    140.6542         0.014434   
    632. D(H 100,O  29,Si 21,O  25)    -90.9772         0.013618   
    633. D(H 100,O  29,Si 21,O  28)     29.6114         0.013618   
    634. D(Si 24,O  30,Si 23,Si 22)     90.7261         0.015125   
    635. D(Si 24,O  30,Si 23,O  27)    111.8861         0.015125   
    636. D(Si 23,O  30,Si 24,O  28)   -108.3576         0.013144   
    637. D(Si 23,O  30,Si 24,O  34)     13.3257         0.013144   
    638. D(H 101,O  31,Si 21,O  25)     16.4871         0.013506   
    639. D(H 101,O  31,Si 21,O  28)   -105.6891         0.013506   
    640. D(H 102,O  32,Si 22,Si  1)      9.4535         0.015441   
    641. D(H 102,O  32,Si 22,Si 23)    130.7680         0.015441   
    642. D(H 103,O  33,Si 23,Si 22)     -1.2086         0.015303   
    643. D(H 103,O  33,Si 23,O  27)      0.0406         0.015303   
    644. D(H 104,O  34,Si 24,O  28)    104.7377         0.014220   
    645. D(H 104,O  34,Si 24,O  30)    -14.6554         0.014220   
    646. D(O  42,Si 38,Si 35,O  39)     64.3269         0.010000   
    647. D(O  42,Si 38,Si 35,O  43)    -73.3317         0.010000   
    648. D(O  44,Si 38,Si 35,O  39)     -2.1893         0.010000   
    649. D(Si 35,O  39,Si 12,O  15)    130.5360         0.013932   
    650. D(Si 35,O  39,Si 12,O  17)   -106.4388         0.013932   
    651. D(C 129,O  39,Si 12,O  15)    -61.5878         0.013932   
    652. D(Si 12,O  39,Si 35,Si 38)     92.7731         0.015463   
    653. D(Si 12,O  39,Si 35,O  42)    113.1579         0.015463   
    654. D(C 129,O  39,Si 35,Si 38)    -73.9834         0.015463   
    655. D(Si 36,O  40,Si 11,O  14)   -133.4359         0.013706   
    656. D(Si 36,O  40,Si 11,O  17)    105.6383         0.013706   
    657. D(Si 11,O  40,Si 36,O  41)    -98.0779         0.012808   
    658. D(Si 11,O  40,Si 36,O  46)     25.1466         0.012808   
    659. D(Si 37,O  41,Si 36,O  40)    134.6405         0.012666   
    660. D(Si 37,O  41,Si 36,O  46)     13.1025         0.012666   
    661. D(Si 36,O  41,Si 37,O  44)   -140.2236         0.014495   
    662. D(Si 36,O  41,Si 37,O  47)    -20.7176         0.014495   
    663. D(Si 38,O  42,Si 35,O  39)   -124.9038         0.014638   
    664. D(Si 38,O  42,Si 35,O  43)    114.8333         0.014638   
    665. D(Si 35,O  42,Si 38,O  44)    123.1817         0.015421   
    666. D(Si 35,O  42,Si 38,O  48)      3.3719         0.015421   
    667. D(Si 35,O  43,Si 22,Si  1)    -89.1722         0.017665   
    668. D(Si 35,O  43,Si 22,Si 23)    106.9300         0.017665   
    669. D(Si 22,O  43,Si 35,Si 38)   -107.2452         0.016647   
    670. D(Si 22,O  43,Si 35,O  39)    110.0475         0.016647   
    671. D(Si 38,O  44,Si 37,O  41)    107.4484         0.014168   
    672. D(Si 38,O  44,Si 37,O  47)    -14.4243         0.014168   
    673. D(Si 37,O  44,Si 38,Si 35)    -90.5436         0.015200   
    674. D(Si 37,O  44,Si 38,O  42)   -111.5350         0.015200   
    675. D(H 105,O  45,Si 35,Si 38)   -129.5964         0.014599   
    676. D(H 105,O  45,Si 35,O  39)     -7.2589         0.014599   
    677. D(H 106,O  46,Si 36,O  40)    -16.6152         0.013486   
    678. D(H 106,O  46,Si 36,O  41)    105.5729         0.013486   
    679. D(H 107,O  47,Si 37,O  41)   -103.7713         0.014243   
    680. D(H 107,O  47,Si 37,O  44)     15.7637         0.014243   
    681. D(H 108,O  48,Si 38,Si 35)      0.3391         0.014679   
    682. D(H 108,O  48,Si 38,O  42)     -0.8815         0.014679   
    683. D(H 109,O  49,Si 36,O  40)     91.1221         0.013621   
    684. D(H 109,O  49,Si 36,O  41)    -29.4989         0.013621   
    685. D(Si 53,Si 50,Si 24,O  28)   -156.2520         0.010000   
    686. D(Si 53,Si 50,Si 24,O  30)    -17.3187         0.010000   
    687. D(O  54,Si 50,Si 24,O  28)    -51.1657         0.010000   
    688. D(O  57,Si 53,Si 50,Si 24)     72.4563         0.010000   
    689. D(O  57,Si 53,Si 50,O  54)     45.7840         0.010000   
    690. D(O  59,Si 53,Si 50,Si 24)     10.3481         0.010000   
    691. D(Si 50,O  54,Si 24,O  28)    137.3498         0.013246   
    692. D(Si 50,O  54,Si 24,O  30)   -101.8569         0.013246   
    693. D(Si 24,O  54,Si 50,Si 53)     90.4263         0.014622   
    694. D(Si 24,O  54,Si 50,O  57)    106.5970         0.014622   
    695. D(Si 51,O  55,Si 23,Si 22)   -104.9963         0.017952   
    696. D(Si 51,O  55,Si 23,O  27)   -126.9062         0.017952   
    697. D(Si 23,O  55,Si 51,O  56)   -115.5445         0.016535   
    698. D(Si 23,O  55,Si 51,O  61)      2.2015         0.016535   
    699. D(Si 52,O  56,Si 51,O  55)    128.6883         0.014123   
    700. D(Si 52,O  56,Si 51,O  61)      9.8125         0.014123   
    701. D(Si 51,O  56,Si 52,O  59)   -126.1315         0.011830   
    702. D(Si 51,O  56,Si 52,O  62)     -5.4924         0.011830   
    703. D(Si 53,O  57,Si 50,Si 24)   -118.7390         0.015448   
    704. D(Si 53,O  57,Si 50,O  54)   -142.0427         0.015448   
    705. D(Si 50,O  57,Si 53,O  59)    126.7548         0.013679   
    706. D(Si 50,O  57,Si 53,O  63)      2.1342         0.013679   
    707. D(H 110,O  58,Si 50,Si 24)   -104.3584         0.015798   
[...]
B( 17-O , 19-O ) :   0.1999 B( 17-O , 20-O ) :   0.1711 B( 17-O ,129-C ) :   0.1004 
B( 17-O ,131-C ) :  -0.1298 B( 18-O , 97-H ) :   0.8370 B( 19-O , 98-H ) :   0.8397 
B( 20-O , 35-Si) :  -0.1075 B( 20-O , 99-H ) :   0.8412 B( 21-Si, 25-O ) :   1.0387 
B( 21-Si, 28-O ) :   1.1654 B( 21-Si, 29-O ) :   1.0352 B( 21-Si, 31-O ) :   1.1066 
B( 22-Si, 26-O ) :   0.5807 B( 22-Si, 27-O ) :   0.8123 B( 22-Si, 32-O ) :   1.0066 
B( 22-Si, 35-Si) :  -0.1210 B( 22-Si, 43-O ) :   1.1254 B( 23-Si, 24-Si) :  -0.1057 
B( 23-Si, 27-O ) :   0.9793 B( 23-Si, 28-O ) :   0.1190 B( 23-Si, 30-O ) :   0.7827 
B( 23-Si, 33-O ) :   0.9439 B( 23-Si, 34-O ) :  -0.1441 B( 23-Si, 51-Si) :  -0.1342 
B( 23-Si, 55-O ) :   0.8892 B( 23-Si, 61-O ) :  -0.1251 B( 24-Si, 28-O ) :   0.7983 
B( 24-Si, 30-O ) :   1.1730 B( 24-Si, 34-O ) :   0.9486 B( 24-Si, 54-O ) :   0.8723 
B( 25-O , 28-O ) :   0.1001 B( 26-O , 27-O ) :   0.2905 B( 26-O , 32-O ) :   0.1577 
B( 26-O , 35-Si) :   0.1697 B( 26-O , 43-O ) :   0.2564 B( 27-O , 30-O ) :   0.2197 
B( 27-O , 32-O ) :   0.1711 B( 27-O , 33-O ) :   0.2075 B( 27-O , 43-O ) :   0.2195 
B( 27-O , 55-O ) :   0.2047 B( 27-O ,136-C ) :   0.1089 B( 28-O , 29-O ) :   0.1249 
B( 28-O , 30-O ) :   0.1812 B( 28-O , 31-O ) :   0.1081 B( 28-O , 34-O ) :   0.1584 
B( 28-O , 54-O ) :   0.1759 B( 29-O ,100-H ) :   0.8346 B( 30-O , 33-O ) :   0.2122 
B( 30-O , 34-O ) :   0.1836 B( 30-O , 54-O ) :   0.1641 B( 30-O , 55-O ) :   0.2426 
B( 31-O ,101-H ) :   0.8220 B( 32-O , 43-O ) :   0.2288 B( 32-O ,102-H ) :   0.8152 
B( 33-O , 55-O ) :   0.2464 B( 33-O ,103-H ) :   0.8051 B( 34-O , 54-O ) :   0.1421 
B( 34-O ,104-H ) :   0.8274 B( 35-Si, 39-O ) :   0.7149 B( 35-Si, 42-O ) :   0.9460 
B( 35-Si, 43-O ) :   0.7239 B( 35-Si, 45-O ) :   0.8217 B( 36-Si, 40-O ) :   1.0185 
B( 36-Si, 41-O ) :   1.2142 B( 36-Si, 46-O ) :   1.0939 B( 36-Si, 49-O ) :   0.9855 
B( 37-Si, 38-Si) :  -0.1147 B( 37-Si, 41-O ) :   0.7178 B( 37-Si, 44-O ) :   1.3129 
B( 37-Si, 47-O ) :   0.8937 B( 37-Si, 69-O ) :   0.8053 B( 38-Si, 41-O ) :   0.1469 
B( 38-Si, 42-O ) :   0.8926 B( 38-Si, 44-O ) :   0.4142 B( 38-Si, 47-O ) :  -0.1717 
B( 38-Si, 48-O ) :   0.8257 B( 38-Si, 68-O ) :   0.7451 B( 38-Si, 71-O ) :   0.1662 
B( 39-O , 42-O ) :   0.3897 B( 39-O , 43-O ) :   0.4152 B( 39-O , 45-O ) :   0.1451 
B( 41-O , 44-O ) :   0.1993 B( 41-O , 46-O ) :   0.1135 B( 41-O , 47-O ) :   0.1717 
B( 41-O , 49-O ) :   0.1557 B( 41-O , 69-O ) :   0.2089 B( 42-O , 43-O ) :   0.3370 
B( 42-O , 44-O ) :   0.4142 B( 42-O , 45-O ) :   0.1855 B( 42-O , 48-O ) :   0.2260 
B( 42-O , 68-O ) :   0.3315 B( 42-O ,130-C ) :  -0.1176 B( 42-O ,131-C ) :   0.1635 
B( 42-O ,135-C ) :  -0.1286 B( 43-O , 45-O ) :   0.1901 B( 43-O ,127-C ) :  -0.1067 
B( 43-O ,136-C ) :   0.1155 B( 44-O , 47-O ) :   0.2826 B( 44-O , 48-O ) :   0.2367 
B( 44-O , 68-O ) :   0.3323 B( 44-O , 69-O ) :   0.1727 B( 45-O ,105-H ) :   0.8148 
B( 46-O ,106-H ) :   0.8221 B( 47-O , 69-O ) :   0.1476 B( 47-O ,107-H ) :   0.8282 
B( 48-O , 68-O ) :   0.2690 B( 48-O ,108-H ) :   0.8057 B( 49-O ,109-H ) :   0.8337 
B( 50-Si, 54-O ) :   1.1266 B( 50-Si, 57-O ) :   1.0574 B( 50-Si, 58-O ) :   1.0980 
B( 50-Si, 60-O ) :   1.0468 B( 51-Si, 52-Si) :  -0.1398 B( 51-Si, 55-O ) :   0.9091 
B( 51-Si, 56-O ) :   0.6469 B( 51-Si, 61-O ) :   1.0510 B( 51-Si, 62-O ) :  -0.1158 
B( 51-Si, 64-Si) :  -0.2079 B( 51-Si, 72-O ) :   1.0146 B( 52-Si, 56-O ) :   1.2264 
B( 52-Si, 59-O ) :   0.8695 B( 52-Si, 62-O ) :   1.0380 B( 52-Si, 81-O ) :   0.8149 
B( 53-Si, 57-O ) :   1.0634 B( 53-Si, 59-O ) :   1.1055 B( 53-Si, 63-O ) :   1.0539 
B( 53-Si, 80-O ) :   1.0321 B( 54-O , 57-O ) :   0.1140 B( 54-O , 60-O ) :   0.1203 
B( 55-O , 56-O ) :   0.2655 B( 55-O , 61-O ) :   0.1987 B( 55-O , 72-O ) :   0.2034 
B( 56-O , 59-O ) :   0.1596 B( 56-O , 61-O ) :   0.1851 B( 56-O , 62-O ) :   0.2126 
B( 56-O , 64-Si) :   0.1012 B( 56-O , 72-O ) :   0.3066 B( 56-O , 81-O ) :   0.1889 
B( 57-O , 60-O ) :   0.1025 B( 57-O , 63-O ) :   0.1238 B( 58-O ,110-H ) :   0.8324 
B( 59-O , 62-O ) :   0.1254 B( 59-O , 63-O ) :   0.1086 B( 59-O , 81-O ) :   0.1946 
B( 60-O ,111-H ) :   0.8224 B( 61-O , 72-O ) :   0.2085 B( 61-O ,112-H ) :   0.8297 
B( 62-O , 81-O ) :   0.1131 B( 62-O ,113-H ) :   0.8197 B( 63-O ,114-H ) :   0.8269 
B( 64-Si, 67-Si) :  -0.1066 B( 64-Si, 68-O ) :   1.0615 B( 64-Si, 71-O ) :   0.4325 
B( 64-Si, 72-O ) :   0.7871 B( 64-Si, 74-O ) :   0.8084 B( 64-Si, 77-O ) :  -0.1441 
B( 65-Si, 69-O ) :   1.1648 B( 65-Si, 70-O ) :   1.0557 B( 65-Si, 75-O ) :   1.0303 
B( 65-Si, 78-O ) :   1.0419 B( 66-Si, 70-O ) :   1.1103 B( 66-Si, 73-O ) :   1.1144 
B( 66-Si, 76-O ) :   1.0531 B( 66-Si, 86-O ) :   1.0133 B( 67-Si, 71-O ) :   1.2342 
B( 67-Si, 73-O ) :   0.8257 B( 67-Si, 77-O ) :   0.9309 B( 67-Si, 85-O ) :   0.7546 
B( 68-O , 71-O ) :   0.3059 B( 68-O , 72-O ) :   0.2659 B( 68-O , 74-O ) :   0.2494 
B( 69-O , 70-O ) :   0.1017 B( 69-O , 75-O ) :   0.1433 B( 70-O , 75-O ) :   0.1073 
B( 70-O , 76-O ) :   0.1293 B( 71-O , 72-O ) :   0.3710 B( 71-O , 73-O ) :   0.1491 
B( 71-O , 74-O ) :   0.1520 B( 71-O , 77-O ) :   0.2678 B( 71-O , 85-O ) :   0.1668 
B( 72-O , 74-O ) :   0.1803 B( 73-O , 76-O ) :   0.1182 B( 73-O , 77-O ) :   0.1609 
B( 73-O , 85-O ) :   0.2088 B( 74-O ,115-H ) :   0.8266 B( 75-O ,116-H ) :   0.8216 
B( 76-O ,117-H ) :   0.8260 B( 77-O , 85-O ) :   0.1721 B( 77-O ,118-H ) :   0.8231 
B( 78-O ,119-H ) :   0.8317 B( 79-Si, 81-O ) :   1.1626 B( 79-Si, 82-O ) :   1.0156 
B( 79-Si, 83-O ) :   1.0402 B( 79-Si, 88-O ) :   1.0695 B( 80-O ,120-H ) :   0.8355 
B( 81-O , 82-O ) :   0.1140 B( 81-O , 83-O ) :   0.1947 B( 82-O ,121-H ) :   0.8341 
B( 83-O , 88-O ) :   0.1196 B( 83-O ,122-H ) :   0.8319 B( 84-Si, 85-O ) :   1.2065 
B( 84-Si, 87-O ) :   1.0765 B( 84-Si, 88-O ) :   1.0251 B( 84-Si, 89-O ) :   1.0259 
B( 85-O , 88-O ) :   0.1235 B( 85-O , 89-O ) :   0.1270 B( 86-O ,123-H ) :   0.8337 
B( 87-O ,124-H ) :   0.8325 B( 88-O , 89-O ) :   0.1044 B( 89-O ,125-H ) :   0.8232 
B(126-N ,127-C ) :   0.9399 B(126-N ,128-N ) :   0.1027 B(126-N ,131-C ) :   0.9712 
B(126-N ,134-C ) :   0.9529 B(126-N ,135-C ) :   0.1036 B(127-C ,128-N ) :   0.7669 
B(127-C ,130-C ) :  -0.1922 B(127-C ,131-C ) :  -0.1807 B(127-C ,132-O ) :   1.7238 
B(127-C ,134-C ) :  -0.3116 B(127-C ,135-C ) :  -0.1900 B(127-C ,136-C ) :   0.1808 
B(127-C ,146-H ) :  -0.1027 B(128-N ,129-C ) :   0.9948 B(128-N ,131-C ) :   0.2391 
B(128-N ,146-H ) :   0.9753 B(129-C ,130-C ) :   1.4746 B(129-C ,133-O ) :   1.6243 
B(130-C ,131-C ) :   1.4288 B(130-C ,135-C ) :  -0.1711 B(130-C ,147-H ) :   1.0420 
B(131-C ,134-C ) :   0.1709 B(131-C ,136-C ) :  -0.2023 B(131-C ,139-O ) :   0.2526 
B(131-C ,147-H ) :  -0.1038 B(131-C ,148-H ) :   1.0168 B(132-O ,134-C ) :   0.1377 
B(134-C ,135-C ) :   1.5813 B(134-C ,136-C ) :  -0.2266 B(134-C ,139-O ) :   1.0311 
B(134-C ,149-H ) :   0.9502 B(134-C ,151-H ) :   0.1460 B(135-C ,136-C ) :   0.9252 
B(135-C ,137-C ) :   0.1288 B(135-C ,138-O ) :   0.1345 B(135-C ,139-O ) :  -0.1290 
B(135-C ,150-H ) :   0.9430 B(135-C ,151-H ) :   1.0282 B(135-C ,152-H ) :   0.1781 
B(136-C ,137-C ) :   1.0232 B(136-C ,138-O ) :   0.9544 B(136-C ,151-H ) :  -0.1663 
B(136-C ,152-H ) :   0.6611 B(136-C ,156-H ) :  -0.1481 B(137-C ,138-O ) :  -0.1422 
B(137-C ,139-O ) :   0.9121 B(137-C ,140-C ) :   0.8142 B(137-C ,153-H ) :   1.0071 
B(138-O ,154-H ) :   0.8531 B(140-C ,141-O ) :   1.0791 B(140-C ,143-O ) :   0.1323 
B(140-C ,153-H ) :  -0.1490 B(140-C ,155-H ) :   0.9642 B(140-C ,156-H ) :   1.1363 
B(141-O ,142-P ) :   0.9441 B(142-P ,143-O ) :   1.5614 B(142-P ,144-O ) :   1.5075 
B(142-P ,145-O ) :   1.0110 B(145-O ,157-H ) :   0.8463 

-------
TIMINGS
-------

Total SCF time: 0 days 4 hours 17 min 27 sec 

Total time                  ....   15447.115 sec
Sum of individual times     ....   15365.693 sec  ( 99.5%)

SCF preparation             ....      21.350 sec  (  0.1%)
Fock matrix formation       ....   15136.240 sec  ( 98.0%)
  Split-RI-J                ....    1399.593 sec  (  9.2% of F)
  Chain of spheres X        ....   12067.791 sec  ( 79.7% of F)
  XC integration            ....     456.243 sec  (  3.0% of F)
    XC Preparation          ....       0.000 sec  (  0.0% of XC)
    Basis function eval.    ....      23.528 sec  (  5.2% of XC)
    Density eval.           ....     122.128 sec  ( 26.8% of XC)
    XC-Functional eval.     ....       0.396 sec  (  0.1% of XC)
    XC-Potential eval.      ....     126.213 sec  ( 27.7% of XC)
  CPCM terms                ....    1207.196 sec  (  8.0% of F)
Diagonalization             ....       0.000 sec  (  0.0%)
Density matrix formation    ....      11.186 sec  (  0.1%)
Total Energy calculation    ....       0.555 sec  (  0.0%)
Population analysis         ....      12.229 sec  (  0.1%)
Orbital Transformation      ....     183.443 sec  (  1.2%)
Orbital Orthonormalization  ....       0.000 sec  (  0.0%)
NR solution                 ....       0.690 sec  (  0.0%)
TRAH solution               ....       0.690 sec  (  0.0%)
Finished LeanSCF after 15451.8 sec

Maximum memory used throughout the entire LEANSCF-calculation: 2113.5 MB


-------------------------------------------------------------------------------
                          DFT DISPERSION CORRECTION                            
                                                                               
                              DFTD3 V3.1  Rev 1                                
                          USING Becke-Johnson damping                          
-------------------------------------------------------------------------------
The PBE0 functional is recognized
Active option DFTDOPT                   ...         4   

molecular C6(AA) [au] = 445084.828753 


            DFT-D V3
 parameters
 s6 scaling factor         :     1.0000 
 a1 scaling factor         :     0.4145 
 s8 scaling factor         :     1.2177 
 a2 scaling factor         :     4.8593 
 ad hoc parameters k1-k3   :    16.0000     1.3333    -4.0000 

 Edisp/kcal,au: -168.491041116406  -0.268507536711 
 E6   /kcal   : -100.677049594 
 E8   /kcal   : -67.813991523 
 % E8         :  40.247832213 

-------------------------   ----------------
Dispersion correction           -0.268507537
-------------------------   ----------------


-------------------------   --------------------
FINAL SINGLE POINT ENERGY    -13336.950646182675
-------------------------   --------------------

                                *** OPTIMIZATION RUN DONE ***



           ************************************************************
           *        Program running with 8 parallel MPI-processes     *
           *              working on a common directory               *
           ************************************************************

------------------------------------------------------------------------------
                              ORCA PROPERTY CALCULATIONS
------------------------------------------------------------------------------

GBWName                                 ... frame_6_ma.gbw
Number of atoms                         ...    158
Number of basis functions               ...   4288
Max core memory                         ...   2500 MB

Electric properties:
Dipole moment                           ... YES
Quadrupole moment                       ...  NO
Static polarizability (Dipole/Dipole)   ...  NO
Static polarizability (Dipole/Quad.)    ...  NO
Static polarizability (Quad./Quad.)     ...  NO
Static polarizability (Velocity)        ...  NO
Static hyperpolarizability              ...  NO

Atomic electric properties:
Dipole moment                           ...  NO
Quadrupole moment                       ...  NO
Static polarizability                   ...  NO

Choice of electric origin               ... Center of mass
Position of electric origin             ...    16.641676    35.460053    15.878945

General magnetic properties:
Magnetizability                         ...  NO

EPR properties:
g-Tensor (aka g-matrix)                 ...  NO
Zero-Field splitting spin-orbit         ...  NO
Zero-field splitting spin-spin          ...  NO
Hyperfine couplings                     ...  NO (   0 nuclei)
Quadrupole couplings                    ...  NO (   0 nuclei)
Contact density                         ...  NO (   0 nuclei)

NMR properties:
Chemical shifts                         ...  NO (   0 nuclei)
Spin-rotation constants                 ...  NO (   0 nuclei)
Spin-spin couplings                     ...  NO (   0 nuclei,    0 pairs)

Choice of magnetic origin               ... GIAO
Position of magnetic origin             ...     0.000000     0.000000     0.000000

Properties with geometric perturbations:
SCF Hessian                             ...  NO
IR spectrum                             ...  NO
VCD spectrum                            ...  NO
X-ray spectroscopy properties:
SCF XES/XAS/RIXS spectra                ...  NO

SCF SOC stabilization energy            ...  NO
Diagonal Born-Oppenheimer correction    ...  NO

-------------
DIPOLE MOMENT
-------------

Method             : SCF
Type of density    : Electron Density
Multiplicity       :   1
Irrep              :   0
Energy             : -13336.6821386459650967 Eh
Basis              : AO
                                X                 Y                 Z
Electronic contribution:     -3.468497249      -4.846605290       5.006140694
Nuclear contribution   :     -9.757066852      -4.726036772     -16.222910159
                        -----------------------------------------
Total Dipole Moment    :    -13.225564101      -9.572642062     -11.216769465
                        -----------------------------------------
Magnitude (a.u.)       :     19.808254316
Magnitude (Debye)      :     50.348581204



--------------------
Rotational spectrum 
--------------------
 
Rotational constants in cm-1:             0.000329             0.000327             0.000187 
Rotational constants in MHz :             9.872013             9.808549             5.612154 

Dipole components along the rotational axes: 
x,y,z [a.u.] :    -7.660009   -14.702093   -10.841572 
x,y,z [Debye]:   -19.470196   -37.369749   -27.557085 

 

Dipole moment calculation done in   0.9 sec 

Maximum memory used throughout the entire PROP-calculation: 1286.2 MB

--------------------------------
SUGGESTED CITATIONS FOR THIS RUN
--------------------------------

Below you find a list of papers that are relevant to this ORCA run
We neither can nor want to force you to cite these papers, but we appreciate if you do
You receive ORCA, which is the product of decades of hard work by many enthusiastic individuals, for free
The only thing we kindly ask in return is that you cite our papers,
We deeply appreciate it, if you show your appreciation for ORCA by not just citing the generic ORCA reference.

Please note that relegating all ORCA citations to the supporting information does *not* help us.
SI sections are not indexed - citations you put there will not count into any citation statistics
But we need these citations in order to attract the funding resources that allow us to do what we are doing

Therefore, if you are a happy ORCA user, please consider citing a few of the papers listed below in the main body of your paper

In addition to the list printed below, the program has created the file frame_6_ma.bibtex that contains the list in bibtex format
You can import this file easily into all common literature databanks and citation aid programs


List of essential papers. We consider these as the minimum necessary citations

  1. Neese, F.
     Software update: the ORCA program system, version 6.0
     WIRES Comput. Molec. Sci. 2025 15(1), e70019
     doi.org/10.1002/wcms.7019

List of papers to cite with high priority. The work reported in these papers was absolutely
necessary for this run to complete.
Our perspective: the developers of density functionals and basis sets usually get cited in chemistry papers
Good! But without the algorithms to do something with them, the functionals or basis sets would not do anything.
Hence, in our opinion, the algorithm design and method developments papers are equally worthy of getting cited

  1. Neese, F.
     An improvement of the resolution of the identity approximation for the formation of the Coulomb matrix
     J. Comp. Chem. 2003 24(14), 1740-1747
     doi.org/10.1002/jcc.10318
  2. Neese, F.; Wennmohs, F.; Hansen, A.; Becker, U.
     Efficient, approximate and parallel Hartree-Fock and hybrid DFT calculations. A 'chain-of-spheres' algorithm for the Hartree-Fock exchange
     Chem. Phys. 2009 356(1-3), 98-109
     doi.org/10.1016/j.chemphys.2008.10.036
  3. Grimme, S.; Antony, J.; Ehrlich, S.; Krieg, H.
     A consistent and accurate ab initio parametrization of density functional dispersion correction (DFT-D) for the 94 elements H-Pu
     J. Chem. Phys. 2010 132 , 154104
     doi.org/10.1063/1.3382344
  4. Grimme, S.; Ehrlich, S.; Goerigk, L.
     Effect of the damping function in dispersion corrected density functional theory
     J. Comput. Chem. 2011 32(7), 1456-1465
     doi.org/10.1002/jcc.21759
  5. Garcia-Rates, M.; Neese, F.
     Effect of the Solute Cavity on the Solvation Energy and its Derivatives within the Framework of the Gaussian Charge Scheme
     J. Comput. Chem. 2020 41 , 922-939
     doi.org/10.1002/jcc.26139
  6. Helmich-Paris, B.; de Souza, B.; Neese, F.; Izsák, R.
     An improved chain of spheres for exchange algorithm
     J. Chem. Phys. 2021 155(10), 104109
     doi.org/10.1063/5.0058766
  7. Helmich-Paris, B.
     A trust-region augmented Hessian implementation for restricted and unrestricted Hartree–Fock and Kohn–Sham methods
     J. Chem. Phys. 2021 154 , 164104
     doi.org/10.1063/5.0040798
  8. Neese, F.
     The SHARK Integral Generation and Digestion System
     J. Comp. Chem. 2022 44(3), 381
     doi.org/10.1002/jcc.26942

List of suggested additional citations. These are papers that are important in the 'surrounding' of 
of this run, or papers that preceded the highly important papers. If you like your results we are grateful for a citation.

  1. Izsak, R.; Neese, F.
     An overlap fitted chain of spheres exchange method
     J. Chem. Phys. 2011 135 , 144105
     doi.org/10.1063/1.3646921
  2. Izsak, R.; Hansen, A.; Neese, F.
     The resolution of identity and chain of spheres approximations for the LPNO-CCSD singles Fock term
     Molec. Phys. 2012 110 , 2413-2417
     doi.org/10.1080/00268976.2012.687466
  3. Neese, F.
     The ORCA program system
     WIRES Comput. Molec. Sci. 2012 2(1), 73-78
     doi.org/10.1002/wcms.81
  4. Izsak, R.; Neese, F.; Klopper, W.
     Robust fitting techniques in the chain of spheres approximation to the Fock exchange: The role of the complementary space
     J. Chem. Phys. 2013 139 , 
     doi.org/10.1063/1.4819264
  5. Neese, F.
     Software update: the ORCA program system, version 4.0
     WIRES Comput. Molec. Sci. 2018 8(1), 1-6
     doi.org/10.1002/wcms.1327
  6. Neese, F.; Wennmohs, F.; Becker, U.; Riplinger, C.
     The ORCA quantum chemistry program package
     J. Chem. Phys. 2020 152(22), 224108
     doi.org/10.1063/5.0004608
  7. Neese, F.
     Software update: The ORCA program system—Version 5.0
     WIRES Comput. Molec. Sci. 2022 12(1), e1606
     doi.org/10.1002/wcms.1606

Timings for individual modules:

Sum of individual times          ...   452525.859 sec (=7542.098 min)
Startup calculation              ...     2133.931 sec (=  35.566 min)   0.5 %
SCF iterations                   ...   375346.543 sec (=6255.776 min)  82.9 %
Property calculations            ...        6.636 sec (=   0.111 min)   0.0 %
SCF Gradient evaluation          ...    75022.862 sec (=1250.381 min)  16.6 %
Geometry relaxation              ...       15.888 sec (=   0.265 min)   0.0 %
                             ****ORCA TERMINATED NORMALLY****
TOTAL RUN TIME: 5 days 5 hours 42 minutes 33 seconds 645 msec
