Running on  hostname
Mon Oct 20 10:12:50 PM CEST 2025

                                 *****************
                                 * O   R   C   A *
                                 *****************

                                            #,                                       
                                            ###                                      
                                            ####                                     
                                            #####                                    
                                            ######                                   
                                           ########,                                 
                                     ,,################,,,,,                         
                               ,,#################################,,                 
                          ,,##########################################,,             
                       ,#########################################, ''#####,          
                    ,#############################################,,   '####,        
                  ,##################################################,,,,####,       
                ,###########''''           ''''###############################       
              ,#####''   ,,,,##########,,,,          '''####'''          '####       
            ,##' ,,,,###########################,,,                        '##       
           ' ,,###''''                  '''############,,,                           
         ,,##''                                '''############,,,,        ,,,,,,###''
      ,#''                                            '''#######################'''  
     '                                                          ''''####''''         
             ,#######,   #######,   ,#######,      ##                                
            ,#'     '#,  ##    ##  ,#'     '#,    #''#        ,####,    ,#,          
            ##       ##  ##   ,#'  ##            #'  '#       #'       ,# #          
            ##       ##  #######   ##           ,######,      #####,      #          
            '#,     ,#'  ##    ##  '#,     ,#' ,#      #,     #,   #      #          
             '#######'   ##     ##  '#######'  #'      '#     '####' #    #          



                #########################################################
                #                        -***-                          #
                #          Department of theory and spectroscopy        #
                #                                                       #
                #                      Frank Neese                      #
                #                                                       #
                #     Directorship, Architecture, Infrastructure        #
                #                    SHARK, DRIVERS                     #
                #        Core code/Algorithms in most modules           #
                #                                                       #
                #        Max Planck Institute fuer Kohlenforschung      #
                #                Kaiser Wilhelm Platz 1                 #
                #                 D-45470 Muelheim/Ruhr                 #
                #                      Germany                          #
                #                                                       #
                #                  All rights reserved                  #
                #                        -***-                          #
                #########################################################


                         Program Version 6.1.0  -  RELEASE   -
                                (GIT: $679e74b$)
                          ($2025-06-10 18:02:51 +0200$)


 With contributions from (in alphabetic order):
[Max-Planck-Institut fuer Kohlenforschung]                               
  Daniel Aravena         : Magnetic Suceptibility                        
  Michael Atanasov       : Ab Initio Ligand Field Theory (pilot matlab implementation)
  Alexander A. Auer      : GIAO ZORA, VPT2 properties, NMR spectrum      
  Ute Becker             : All parallelization in ORCA, NUMFREQ, NUMCALC 
  Giovanni Bistoni       : ED, misc. LED, open-shell LED, HFLD           
  Dmytro Bykov           : pre 5.0 version of the SCF Hessian            
  Marcos Casanova-Páez   : Triplet and SCS-CIS(D). UHF-(DLPNO)-IP/EA/STEOM-CCSD. UHF-CVS-IP/STEOM-CCSD   
  Vijay G. Chilkuri      : MRCI spin determinant printing, contributions to CSF-ICE 
  Pauline Colinet        : FMM embedding                                 
  Dipayan Datta          : RHF DLPNO-CCSD density                        
  Achintya Kumar Dutta   : EOM-CC, STEOM-CC                              
  Nicolas Foglia         : Exact transition moments, OPA infrastructure, MCD improvements    
  Dmitry Ganyushin       : Spin-Orbit,Spin-Spin,Magnetic field MRCI      
  Miquel Garcia-Rates    : C-PCM and meta-GGA Hessian, CCSD/C-PCM, Gaussian charge scheme 
  Tiago L. C. Gouveia    : GS-ROHF, GS-ROCIS                             
  Yang Guo               : DLPNO-NEVPT2, F12-NEVPT2, CIM, IAO-localization        
  Andreas Hansen         : Spin unrestricted coupled pair/coupled cluster methods 
  Ingolf Harden          : AUTO-CI MPn and infrastructure                
  Benjamin Helmich-Paris : MC-RPA, TRAH-(SCF,CASSCF), AVAS, COSX integrals, SCF dyn. polar., MC-PDFT, srDFT 
  Lee Huntington         : MR-EOM, pCC                                   
  Robert Izsak           : Overlap fitted RIJCOSX, COSX-SCS-MP3, EOM     
  Riya Kayal             : Wick's Theorem for AUTO-CI, AUTO-CI UHF-CCSDT 
  Emily Kempfer          : AUTO-CI RHF CISDT and CCSDT, approximate NEVPT4
  Christian Kollmar      : KDIIS, OOCD, Brueckner-CCSD(T), CCSD density, CASPT2, CASPT2-K, improved NEVPT2 
  Axel Koslowski         : Symmetry handling                             
  Simone Kossmann        : meta-GGA functionals, TD-DFT gradient, OOMP2, (MP2 Hessian; deprecated post 5.0) 
  Lucas Lang             : DCDCAS, Hyperfine gauge corrections, ICE-SOC+SSC
  Marvin Lechner         : AUTO-CI (C++ implementation), FIC-MRCC        
  Spencer Leger          : CASSCF response                               
  Dagmar Lenk            : GEPOL surface, SMD, ORCA-2-JSON               
  Dimitrios Liakos       : Extrapolation schemes; Compound Job, Property file
  Dimitrios Manganas     : Further ROCIS development; embedding schemes. LFT, Crystal Embedding 
  Dimitrios Pantazis     : SARC Basis sets                               
  Anastasios Papadopoulos: AUTO-CI, single reference methods and gradients 
  Taras Petrenko         : pre 6.0 DFT Hessian and TD-DFT gradient,  ECA, NRVS 
  Petra Pikulova         : Analytic Raman intensities                    
  Peter Pinski           : DLPNO-MP2, DLPNO-MP2 Gradient                 
  Shashank Vittal Rao    : ES-AILFT, MagRelax                            
  Christoph Reimann      : Effective Core Potentials                     
  Marius Retegan         : Local ZFS, SOC                                
  Christoph Riplinger    : Optimizer, TS searches, QM/MM, DLPNO-CCSD(T), (RO)-DLPNO pert. Triples 
  Michael Roemelt        : Original ROCIS implementation, recursive CI coupling coefficients
  Masaaki Saitow         : Open-shell DLPNO-CCSD energy and density      
  Barbara Sandhoefer     : DKH picture change effects                    
  Yorick L. A. Schmerwitz: GMF and freeze-and-release deltaSCF, NEB S-IDPP initial path                    
  Kantharuban Sivalingam : CASSCF convergence/infrastructure, NEVPT2, NEVPT3, NEVPT4(SD), FIC-MRCI and CEPA variants
  Bernardo de Souza      : ESD, SOC TD-DFT                               
  Georgi L. Stoychev     : AutoAux, RI-MP2 NMR, DLPNO-MP2 response, X2C  
  Van Anh Tran           : RI-MP2 g-tensors                              
  Willem Van den Heuvel  : Paramagnetic NMR                              
  Zikuan Wang            : NOTCH, Electric field optimization            
  Frank Wennmohs         : Technical directorship and infrastructure     
  Hang Xu                : AUTO-CI-Response properties                   
                                                                         
[FACCTs GmbH]                                                            
  Markus Bursch, Nicolas Foglia, Miquel Garcia-Rates, Ingolf Harden, Hagen Neugebauer, Anastasios Papadopoulos, 
  Christoph Riplinger, Bernardo de Souza, Georgi L. Stoychev                                                    
                                                                 
  APM, various basis sets, CI-OPT, improved COSX, DLPNO-Multilevel,           
  DOCKER, DRACO, updates on ESD, Fragmentator, GOAT, IRC, LR-CPCM, L-BFGS, MBIS, meta-GGA TD-DFT gradient, ML-optimized integration grids, 
  MM, NACMEs, nearIR, NEB, NEB-TS, NL-DFT gradient (VV10), 2- and 3-layer-ONIOM, interface openCOSMO-RS, QMMM,   
  Crystal-QMMM, RESP, rigid body optimization, SF, symmetry and pop. for TD-DFT, various functionals, SOLVATOR                                   
                                                                         
[Other institutions]                                                     
  V. Asgeirsson          : NEB                                           
  Christoph Bannwarth    : sTDA-DFT, sTD-DFT, PBEh-3c, B97-3c, D3        
  Giovanni Bistoni       : ETS/NOCV, ADLD/ADEX, COVALED                  
  Martin Brehm           : Molecular dynamics                            
  Ronald Cardenas        : ETS/NOCV                                      
  Martina Colucci        : COVALED                                       
  Sebastian Ehlert       : rSCAN, r2SCAN, r2SCAN-3c, D4, dhf basis sets  
  Marvin Friede          : D4 for Fr, Ra, Ac-Lr                          
  Lars Goerigk           : TD-DFT with DH, B97 family of functionals     
  Stefan Grimme          : VdW corrections, initial TS optimization, DFT functionals, gCP, sTDA/sTD-DF 
  Waldemar Hujo          : DFT-NL                                        
  H. Jonsson             : NEB                                           
  Holger Kruse           : gCP                                           
  Marcel Mueller         : wB97X-3c, vDZP basis set                      
  Hagen Neugebauer       : wr2SCAN, Native XTB                           
  Gianluca Regni         : ADLD/ADEX                                     
  Tobias Risthaus        : pre 6.0 range-separated hybrid DFT and stability analysis
  Lukas Wittmann         : regularized MP2, r2SCAN double-hybrids, wr2SCAN        
                                                                         
We gratefully acknowledge several colleagues who have allowed us to      
interface, adapt or use parts of their codes:                            
  Ed Valeev, F. Pavosevic, A. Kumar             : LibInt (2-el integral package), F12 methods 
  Garnet Chan, S. Sharma, J. Yang, R. Olivares  : DMRG                   
  Ulf Ekstrom                                   : XCFun DFT Library      
  Mihaly Kallay                                 : mrcc  (arbitrary order and MRCC methods)
  Frank Weinhold                                : gennbo (NPA and NBO analysis)           
  Simon Mueller                                 : openCOSMO-RS                            
  Christopher J. Cramer and Donald G. Truhlar   : smd solvation model                     
  S Lehtola, MJT Oliveira, MAL Marques          : LibXC Library                           
  Liviu Ungur et al                             : ANISO software                          


 Your calculation uses the libint2 library for the computation of 2-el integrals
 For citations please refer to: http://libint.valeyev.net

 Your ORCA version has been built with support for libXC version: 7.0.0
 For citations please refer to: https://libxc.gitlab.io

 This ORCA versions uses:
   CBLAS   interface :  Fast vector & matrix operations
   LAPACKE interface :  Fast linear algebra routines
   SCALAPACK package :  Parallel linear algebra routines
   Shared memory     :  Shared parallel matrices
   BLAS/LAPACK       :  OpenBLAS 0.3.29  USE64BITINT DYNAMIC_ARCH NO_AFFINITY Haswell SINGLE_THREADED
        Core in use  :  Haswell
   Copyright (c) 2011-2014, The OpenBLAS Project


  ***********************************
  * Starting time: Mon Oct 20 22:12:50 2025
  * Host name:     node231.cluster
  * Process ID:    3963451
  * Working dir.:  /data/scratch/54370755
  ***********************************

NOTE: MaxCore=1500 MB was set to SCF,MP2,MDCI,CIPSI,MRCI,RASCI and CIS
      => If you want to overwrite this, your respective input block should be placed after the MaxCore statement
Your calculation utilizes the atom-pairwise dispersion correction
with the Becke-Johnson damping scheme (D3BJ)


Warning: RI is on but no J-basis has been assigned. Assigning Def2/J (nothing to worry about!)
================================================================================

----- Orbital basis set information -----
Your calculation utilizes the basis: ma-def2-TZVP
   F. Weigend and R. Ahlrichs, Phys. Chem. Chem. Phys. 7, 3297 (2005).
   J. Zheng, X. Xu and D. G. Truhlar, Theor. Chem. Acc. 128, 295 (2011).

----- AuxJ basis set information -----
Your calculation utilizes the auxiliary basis: def2/J
   H-Rn: F. Weigend, Phys. Chem. Chem. Phys. 8, 1057 (2006).
   Fr-Lr: K. Eichkorn, F. Weigend, O. Treutler, R. Ahlrichs; Theor. Chem. Acc. 97, 119 (1997).

================================================================================
                                        WARNINGS
                       Please study these warnings very carefully!
================================================================================


WARNING: Geometry Optimization
  ===> : Switching off AutoStart
         For restart on a previous wavefunction, please use MOREAD

================================================================================
                                       INPUT FILE
================================================================================
NAME = frame_7_ma.inp
|  1> ! PBE0 D3BJ CPCM(water) Opt ma-def2-TZVP
|  2> 
|  3> %pal
|  4>   nprocs 1
|  5> end
|  6> 
|  7> %maxcore 1500
|  8> 
|  9> %geom
| 10>   Constraints
| 11>     { C 4 C }
| 12>     { C 6 C }
| 13>     { C 15 C }
| 14>     { C 16 C }
| 15>     { C 17 C }
| 16>     { C 25 C }
| 17>     { C 28 C }
| 18>     { C 40 C }
| 19>     { C 41 C }
| 20>     { C 54 C }
| 21>     { C 57 C }
| 22>     { C 59 C }
| 23>     { C 69 C }
| 24>     { C 70 C }
| 25>     { C 73 C }
| 26>     { C 81 C }
| 27>     { C 85 C }
| 28>     { C 88 C }
| 29>   end
| 30> end
| 31> 
| 32> * xyz -1 1
| 33>   Si          0.82878262067302     16.90195040354110      8.02440634270003
| 34>   Si          3.58250423938206     15.40544997964221      7.92542155812930
| 35>   Si          3.62313190461498     12.33346111841248      7.78400753751817
| 36>   O          -0.39445107167019     16.38612603602925      8.96383972802351
| 37>   O           2.14700557553811     16.01900956337465      8.38099715491394
| 38>   O           2.17164691880090     11.70366492385318      8.15095220668632
| 39>   O           3.71000608957407     13.84500014547977      8.38397909188149
| 40>   O           0.51692046310985     16.82761537361808      6.42774962769809
| 41>   O           3.77610865315882     15.56052557978916      6.30558732688730
| 42>   O           3.86271302522470     12.26186080437957      6.17109096732232
| 43>   Si          0.79440075203782     20.03572565932791      8.10284773462140
| 44>   Si          3.61497748122326     24.59134345138481      7.79214190404516
| 45>   Si          3.57961841198878     21.51286242695994      7.92493751898435
| 46>   O          -0.37740993298966     20.61346217377708      9.07008294125939
| 47>   O           2.16843037634521     25.21977336191133      8.17571044212050
| 48>   O           2.14699758258441     20.90099628250761      8.38099626213867
| 49>   O           1.04502619600906     18.46001508918830      8.38402538208447
| 50>   O           3.71000362806276     23.07499897692916      8.38397626189422
| 51>   O           0.31433633551121     20.17169166401884      6.55761703653871
| 52>   O           3.83740440011105     24.65747542633202      6.17667083457024
| 53>   O           3.79463589349595     21.34274221067972      6.31304606106663
| 54>   Si          6.22277424418502     10.72753711638318      7.92557167833773
| 55>   Si          6.22566260849399     16.91673832590750      7.99453486933878
| 56>   Si          8.86279406522378     15.39840161624542      8.00047367909468
| 57>   Si          8.87829844065660     12.33782379051355      7.90093197197278
| 58>   O           4.81101547767837     11.40399093046054      8.38101801881856
| 59>   O           4.84601024415588     16.24191238345336      8.52527578285036
| 60>   O           7.53642472162146     16.13775656836784      8.57677545741653
| 61>   O           7.47600027554409     11.67098981125560      8.38099781193724
| 62>   O           6.39595965499527      9.27218563614871      8.62310423288834
| 63>   O           8.95365092946596     13.85395554841589      8.51272715657659
| 64>   O           6.20088887517670     10.48474463539195      6.31900241172565
| 65>   O           6.31542704536871     16.80361524961548      6.36574796597158
| 66>   O           8.83274835575537     15.38668731448322      6.36039009272508
| 67>   O           8.99479728300884     12.43534455246369      6.27030474502087
| 68>   Si          6.22866541284678     20.02879671208085      8.05629470180702
| 69>   Si          6.22265700371864     26.17261539198043      7.88803670547711
| 70>   Si          8.88261289687181     24.56151267732261      7.94262346757722
| 71>   Si          8.86629447063301     21.51926540494852      8.15101856170372
| 72>   O           4.83171271283461     20.68848232139566      8.57237661637778
| 73>   O           4.81101477842034     25.51600831866847      8.38101914908332
| 74>   O           7.47599929210216     25.24901066571083      8.38099873682020
| 75>   O           7.51731495543808     20.79817453362872      8.70685721232573
| 76>   O           6.28889018271718     18.46540640115424      8.48321905699311
| 77>   O           8.96642005417703     23.07316344661395      8.62790631115394
| 78>   O           6.36751880783250     20.20331139629353      6.43642112504637
| 79>   O           6.19577842053979     26.34241900025944      6.27274240373942
| 80>   O           9.00041047848683     24.38953485931063      6.31817649710131
| 81>   O           8.86588213540026     21.49537068050350      6.50717701911933
| 82>   O           6.39604294238371     27.65701473954529      8.52167936459073
| 83>   Si         11.53984366234733     10.89127134159996      7.71105631121559
| 84>   Si         11.54714090435906     16.90182641882289      7.93250941956315
| 85>   Si         14.19788891923507     15.39794316300698      7.87692417203541
| 86>   Si         14.23897239374807     12.29569421847549      7.89155184974285
| 87>   O          10.13999861788037     11.40400535930334      8.38100365374558
| 88>   O          10.18785096967390     16.20231758366660      8.49525820063154
| 89>   O          12.84951861403759     16.10197872338806      8.49566287187047
| 90>   O          12.80500929168283     11.67100473887822      8.38100778837066
| 91>   O          11.70326845059829      9.29212328780259      7.92564582282981
| 92>   O          14.36799633848729     13.84501086582960      8.38400108560377
| 93>   O          11.53397807182744     11.17733915759838      6.10595836615125
| 94>   O          11.57757730927746     16.80080278826393      6.30060639616868
| 95>   O          14.09342354128746     15.41397211580298      6.25397660469053
| 96>   O          14.36110105876525     12.11327319016601      6.28242324515070
| 97>   Si         11.52387666375948     20.03916141374432      8.01092186310635
| 98>   Si         11.53925220227814     26.01173290159152      7.70017084052444
| 99>   Si         14.22955920526478     24.62294809700592      7.88506231689327
|100>   Si         14.17883430648195     21.51916210465827      7.91599056029521
|101>   O          10.17686890109591     20.69512892824268      8.67002151724697
|102>   O          10.13999858435497     25.51599645680326      8.38100309538954
|103>   O          12.80500952099842     25.24899779483862      8.38100212204841
|104>   O          12.83540811560796     20.83772123338169      8.55979721652605
|105>   O          11.61455637408325     18.46181734267256      8.40089840223086
|106>   O          14.36800141513752     23.07499781213230      8.38399302553255
|107>   O          11.48711288010556     20.23216105493165      6.38893674640160
|108>   O          11.52347588580258     25.69421110499148      6.09917368727996
|109>   O          14.33708092672281     24.77376462538961      6.27051584195112
|110>   O          14.08544043811983     21.41793013724091      6.28520547385519
|111>   O          11.69955170163595     27.61679725875440      7.87655942325144
|112>   Si         16.92719734248386     16.88526530324096      7.97576708886968
|113>   O          15.47231806189585     11.46894112189527      8.54779197577094
|114>   O          15.46901162106993     16.28599601365796      8.38100899447799
|115>   O          18.08381982506319     16.12545329089777      8.82353521784555
|116>   O          17.21577429995807     16.70630705840931      6.38239509963120
|117>   Si         16.70726425094001     19.87063444508976      7.64063109147464
|118>   O          15.46900840099394     20.63399994112686      8.38100049480772
|119>   O          15.47553883090581     25.45066698400870      8.51578068125762
|120>   O          18.03399418776559     20.80795143205377      7.64224260845473
|121>   O          17.03199227264527     18.46000878106270      8.38398711048918
|122>   O          16.32032260329127     19.54364428376045      6.08990027320736
|123>   H          -0.48717907339380     15.43816676165107      9.09395196575676
|124>   H           1.70343536236542     12.07855219018967      8.90216610949663
|125>   H           0.32540342175744     15.96511370732818      6.04791235379301
|126>   H           3.05332963020905     15.34032965090092      5.71155077913751
|127>   H           3.21228280017299     12.64396506332465      5.57552393730276
|128>   H          -0.16065865815997     20.77079813652862      9.99338908490977
|129>   H           1.69843262545391     24.83517644460003      8.92083828959388
|130>   H           0.10773552123704     21.05360712352117      6.23429632372767
|131>   H           3.18179473696313     24.27411208585543      5.58752100755417
|132>   H           3.08296379204430     21.56380568855029      5.70556131915325
|133>   H           6.83229201570221      9.24117876716864      9.47901926497695
|134>   H           5.53017140069555     10.99951567710474      5.85000382280507
|135>   H           5.51191029891977     16.45402263823454      5.94810210192771
|136>   H           8.05634951939141     15.82912460758713      5.97792949768759
|137>   H           8.84235955768649     13.31656959402201      5.89875672756161
|138>   H           5.57153465910312     20.53857283929922      5.99350827345468
|139>   H           5.50379491001409     25.82931833398655      5.83244388882347
|140>   H           8.88097061045440     23.48426171354479      5.99353628659813
|141>   H           8.07563560917902     21.07384679801625      6.12278683395540
|142>   H           6.84601701809492     27.72859616661234      9.36790133390378
|143>   H          12.05253437574971      8.98363351744008      8.76655590419664
|144>   H          10.74335345721204     11.64609656321361      5.79329970854585
|145>   H          10.78070449090789     16.45301222419768      5.87949597656959
|146>   H          13.29656126377751     15.84452927603769      5.90989779056404
|147>   H          13.52194748401976     11.97826211512273      5.82192520949903
|148>   H          10.66012720594168     20.58542801333534      6.02810160204307
|149>   H          10.74065534447403     25.20114657022767      5.80534089303915
|150>   H          13.49378608198924     24.92330229053262      5.82112300941263
|151>   H          13.22167885681657     21.12694459281466      5.95172948259349
|152>   H          12.07258459021531     27.94288998696623      8.70033818124835
|153>   H          15.82567448139594     11.79103783436553      9.38142041064085
|154>   H          17.94673044562219     15.19567467221520      9.02436708963632
|155>   H          16.81973899416274     17.38375274055273      5.81986740271662
|156>   H          15.82799823646685     25.14707921919943      9.35670519714650
|157>   H          18.43124462225311     21.02758527786897      8.48985613870950
|158>   H          15.57184573522674     20.05438623114718      5.74825349577332
|159>   N           7.71337286074765     14.18129064238484     12.16877385521980
|160>   C           6.79664717349017     13.16761845299539     11.99619120936378
|161>   N           5.54341600067428     13.57536698024534     11.62514261844580
|162>   C           5.07412540579926     14.87836921059245     11.51842815880738
|163>   C           6.09802553393469     15.86551397664882     11.70246502530697
|164>   C           7.35011711646793     15.48633140880999     12.02802097276933
|165>   O           7.07482805061845     11.99307381814036     12.17168022965142
|166>   O           3.88834318112418     15.08558399519429     11.29968175643650
|167>   C           9.02128647532181     13.78010411403403     12.76568505554051
|168>   C           9.91624864576823     12.98317382013095     11.83447328543760
|169>   C          10.88433477345004     14.01387607753777     11.27067120493585
|170>   C          10.92292951556537     15.08274682565933     12.35723882143365
|171>   O          12.18595146077450     13.52136160157494     11.04338255697740
|172>   O           9.72843240996500     14.92186018863168     13.13058342923506
|173>   C          10.99609923589789     16.47465687636014     11.78430432136979
|174>   O          11.04574605458042     17.44022294786947     12.81826601688573
|175>   P          10.10207146866174     18.75450336629408     12.72483615177526
|176>   O           8.73491461410342     18.37474505619430     12.25731118798904
|177>   O          10.30960655303768     19.46769583486102     14.01158322131460
|178>   O          10.82056612814038     19.60361885249430     11.54016044431349
|179>   H           4.86563551520395     12.83357518761022     11.50752128280818
|180>   H           5.84897917527789     16.91146013600040     11.60215513717626
|181>   H           8.12446431970282     16.22213336475115     12.20897210446949
|182>   H           8.76045972940924     13.21376306712429     13.66190757474316
|183>   H          10.48306748465699     12.26386011334357     12.42964204872029
|184>   H           9.35935792128487     12.43822509142275     11.07738482748845
|185>   H          10.48841614365775     14.44468302950414     10.34915870215159
|186>   H          11.77934197357563     14.90148824745191     13.01615422334339
|187>   H          12.19437311950149     13.06150170413616     10.19625023802637
|188>   H          11.90323731236967     16.54729189424591     11.17398143851439
|189>   H          10.13055850807274     16.64860249214876     11.14005652321245
|190>   H          10.21929923406664     19.72581130067409     10.79672978559433
|191> *
|192> 
|193>                          ****END OF INPUT****
================================================================================

                       *****************************
                       * Geometry Optimization Run *
                       *****************************

Geometry optimization settings:
Update method            Update   .... BFGS
Choice of coordinates    CoordSys .... (2022) Redundant Internals
Initial Hessian          InHess   .... Almloef's Model
Max. no of cycles        MaxIter  .... 474

Convergence Tolerances:
Energy Change            TolE     ....  5.0000e-06 Eh
Max. Gradient            TolMAXG  ....  3.0000e-04 Eh/bohr
RMS Gradient             TolRMSG  ....  1.0000e-04 Eh/bohr
Max. Displacement        TolMAXD  ....  4.0000e-03 bohr
RMS Displacement         TolRMSD  ....  2.0000e-03 bohr
Strict Convergence                .... False

------------------------------------------------------------------------------
                        ORCA OPTIMIZATION COORDINATE SETUP
------------------------------------------------------------------------------

The optimization will be done in redundant internal coordinates (2022)
Making redundant internal coordinates   ...  (2022 redundants) done
Evaluating the initial hessian          ...  (Almloef) done
Evaluating the coordinates              ...  done
Calculating the B-matrix                .... done
Calculating the G-matrix                .... done
Will constrain atom 4 coordinate 1 
Will constrain atom 4 coordinate 2 
Will constrain atom 4 coordinate 3 
Will constrain atom 6 coordinate 1 
Will constrain atom 6 coordinate 2 
Will constrain atom 6 coordinate 3 
Will constrain atom 15 coordinate 1 
Will constrain atom 15 coordinate 2 
Will constrain atom 15 coordinate 3 
Will constrain atom 16 coordinate 1 
Will constrain atom 16 coordinate 2 
Will constrain atom 16 coordinate 3 
Will constrain atom 17 coordinate 1 
Will constrain atom 17 coordinate 2 
Will constrain atom 17 coordinate 3 
Will constrain atom 25 coordinate 1 
Will constrain atom 25 coordinate 2 
Will constrain atom 25 coordinate 3 
Will constrain atom 28 coordinate 1 
Will constrain atom 28 coordinate 2 
Will constrain atom 28 coordinate 3 
Will constrain atom 40 coordinate 1 
Will constrain atom 40 coordinate 2 
Will constrain atom 40 coordinate 3 
Will constrain atom 41 coordinate 1 
Will constrain atom 41 coordinate 2 
Will constrain atom 41 coordinate 3 
Will constrain atom 54 coordinate 1 
Will constrain atom 54 coordinate 2 
Will constrain atom 54 coordinate 3 
Will constrain atom 57 coordinate 1 
Will constrain atom 57 coordinate 2 
Will constrain atom 57 coordinate 3 
Will constrain atom 59 coordinate 1 
Will constrain atom 59 coordinate 2 
Will constrain atom 59 coordinate 3 
Will constrain atom 69 coordinate 1 
Will constrain atom 69 coordinate 2 
Will constrain atom 69 coordinate 3 
Will constrain atom 70 coordinate 1 
Will constrain atom 70 coordinate 2 
Will constrain atom 70 coordinate 3 
Will constrain atom 73 coordinate 1 
Will constrain atom 73 coordinate 2 
Will constrain atom 73 coordinate 3 
Will constrain atom 81 coordinate 1 
Will constrain atom 81 coordinate 2 
Will constrain atom 81 coordinate 3 
Will constrain atom 85 coordinate 1 
Will constrain atom 85 coordinate 2 
Will constrain atom 85 coordinate 3 
Will constrain atom 88 coordinate 1 
Will constrain atom 88 coordinate 2 
Will constrain atom 88 coordinate 3 
The number of degrees of freedom        ....  955
Storing new coordinates                 .... done

    -----------------------------------------------------------------
                    Redundant Internal Coordinates


    -----------------------------------------------------------------
         Definition                    Initial Value    Approx d2E/dq
    -----------------------------------------------------------------
      1. B(O   3,Si  0)                  1.6263         1.020985   
      2. B(O   4,Si  1)                  1.6262         1.021273   
      3. B(O   4,Si  0)                  1.6262         1.021513   
      4. B(O   5,Si  2)                  1.6242         1.028874   
      5. B(O   6,Si  2)                  1.6286         1.012548   
      6. B(O   6,Si  1)                  1.6314         1.002023   
      7. B(O   7,Si  0)                  1.6285         1.012738   
      8. B(O   8,Si  1)                  1.6387         0.975523   
      9. B(O   9,Si  2)                  1.6322         0.999218   
     10. B(O  13,Si 10)                  1.6256         1.023811   
     11. B(O  14,Si 11)                  1.6231         1.033017   
     12. B(O  15,Si 12)                  1.6232         1.032755   
     13. B(O  15,Si 10)                  1.6296         1.008770   
     14. B(O  16,Si  0)                  1.6136         1.069883   
     15. B(O  16,Si 10)                  1.6201         1.044560   
     16. B(O  17,Si 12)                  1.6334         0.994775   
     17. B(O  17,Si 11)                  1.6305         1.005343   
     18. B(O  18,Si 10)                  1.6238         1.030520   
     19. B(O  19,Si 11)                  1.6321         0.999704   
     20. B(O  20,Si 12)                  1.6350         0.988777   
     21. B(O  25,Si 21)                  1.6304         1.005926   
     22. B(O  25,Si  2)                  1.6222         1.036700   
     23. B(O  26,Si  1)                  1.6297         1.008357   
     24. B(O  26,Si 22)                  1.6250         1.026067   
     25. B(O  27,Si 22)                  1.6322         0.999344   
     26. B(O  27,Si 23)                  1.6242         1.028961   
     27. B(O  28,Si 21)                  1.6334         0.994658   
     28. B(O  28,Si 24)                  1.6253         1.024845   
     29. B(O  29,Si 21)                  1.6231         1.032964   
     30. B(O  30,Si 23)                  1.6297         1.008322   
     31. B(O  30,Si 24)                  1.6367         0.982955   
     32. B(O  31,Si 21)                  1.6250         1.026095   
     33. B(O  32,Si 22)                  1.6352         0.988296   
     34. B(O  33,Si 23)                  1.6404         0.969509   
     35. B(O  34,Si 24)                  1.6377         0.979212   
     36. B(Si 35,Si 12)                  3.0393         0.027592   
     37. B(Si 36,O   3)                 11.8625         0.010000   
     38. B(Si 38,Si 35)                  3.0311         0.028433   
     39. B(O  39,Si 12)                  1.6329         0.996418   
     40. B(O  39,Si 35)                  1.6288         1.011704   
     41. B(O  40,Si 11)                  1.6224         1.035664   
     42. B(O  40,Si 36)                  1.6331         0.995994   
     43. B(O  41,Si 37)                  1.6258         1.022743   
     44. B(O  41,Si 36)                  1.6331         0.995965   
     45. B(O  42,Si 38)                  1.6275         1.016656   
     46. B(O  42,Si 35)                  1.6358         0.986089   
     47. B(O  43,Si 35)                  1.6218         1.038255   
     48. B(O  43,Si 22)                  1.6252         1.025295   
     49. B(O  44,Si 37)                  1.6407         0.968526   
     50. B(O  44,Si 38)                  1.6285         1.012796   
     51. B(O  45,Si 35)                  1.6352         0.988379   
     52. B(O  46,Si 36)                  1.6244         1.028140   
     53. B(O  47,Si 37)                  1.6378         0.978934   
     54. B(O  48,Si 38)                  1.6440         0.956720   
     55. B(O  49,Si 36)                  1.6233         1.032480   
     56. B(Si 50,Si 24)                  3.0352         0.028008   
     57. B(O  54,Si 24)                  1.6415         0.965762   
     58. B(O  54,Si 50)                  1.6344         0.991086   
     59. B(O  55,Si 36)                 10.7470         0.010000   
     60. B(O  55,O   3)                 10.5943         0.010000   
     61. B(O  55,Si 23)                  1.6269         1.018731   
     62. B(O  55,Si 51)                  1.6290         1.010945   
     63. B(O  56,Si 52)                  1.6421         0.963353   
     64. B(O  56,Si 51)                  1.6288         1.011609   
     65. B(O  57,Si 50)                  1.6302         1.006629   
     66. B(O  57,Si 53)                  1.6389         0.974801   
     67. B(O  58,Si 50)                  1.6217         1.038313   
     68. B(O  59,Si 52)                  1.6425         0.962215   
     69. B(O  59,Si 53)                  1.6308         1.004282   
     70. B(O  60,Si 50)                  1.6304         1.005784   
     71. B(O  61,Si 51)                  1.6353         0.987809   
     72. B(O  62,Si 52)                  1.6264         1.020734   
     73. B(O  63,Si 53)                  1.6240         1.029587   
     74. B(Si 65,Si 37)                  3.0364         0.027886   
     75. B(Si 66,Si 65)                  3.0333         0.028208   
     76. B(Si 67,Si 64)                  3.0411         0.027408   
     77. B(O  68,Si 38)                  1.6328         0.996810   
     78. B(O  68,Si 64)                  1.6368         0.982394   
     79. B(O  69,Si 37)                  1.6384         0.976792   
     80. B(O  69,Si 65)                  1.6332         0.995658   
     81. B(O  70,Si 65)                  1.6271         1.018076   
     82. B(O  70,Si 66)                  1.6332         0.995615   
     83. B(O  71,Si 67)                  1.6382         0.977440   
     84. B(O  71,Si 64)                  1.6307         1.004801   
     85. B(O  72,Si 51)                  1.6302         1.006582   
     86. B(O  72,Si 64)                  1.6274         1.017064   
     87. B(O  73,Si 66)                  1.6323         0.998968   
     88. B(O  73,Si 67)                  1.6357         0.986484   
     89. B(O  74,Si 64)                  1.6338         0.993156   
     90. B(O  75,Si 65)                  1.6323         0.998954   
     91. B(O  76,Si 66)                  1.6251         1.025429   
     92. B(O  77,Si 67)                  1.6366         0.983172   
     93. B(O  78,Si 65)                  1.6227         1.034781   
     94. B(O  80,Si 53)                  1.6234         1.032123   
     95. B(O  81,Si 52)                  1.6305         1.005463   
     96. B(O  81,Si 79)                  1.6278         1.015537   
     97. B(O  82,Si 79)                  1.6229         1.033891   
     98. B(O  83,Si 79)                  1.6292         1.010410   
     99. B(Si 84,Si 67)                  3.0309         0.028452   
    100. B(Si 84,Si 79)                  3.0122         0.030481   
    101. B(O  85,Si 67)                  1.6323         0.998915   
    102. B(O  85,Si 84)                  1.6322         0.999077   
    103. B(O  86,Si 66)                  1.6234         1.032034   
    104. B(O  87,Si 84)                  1.6244         1.028086   
    105. B(O  88,Si 79)                  1.6302         1.006653   
    106. B(O  88,Si 84)                  1.6272         1.017555   
    107. B(O  89,Si 84)                  1.6314         1.002162   
    108. B(H  90,O   3)                  0.9613         0.517423   
    109. B(H  91,O   5)                  0.9613         0.517492   
    110. B(H  92,O   7)                  0.9617         0.516722   
    111. B(H  93,O   8)                  0.9611         0.517798   
    112. B(H  94,O   9)                  0.9611         0.517810   
    113. B(H  95,O  13)                  0.9614         0.517348   
    114. B(H  96,O  14)                  0.9613         0.517548   
    115. B(H  97,O  18)                  0.9618         0.516593   
    116. B(H  98,O  19)                  0.9612         0.517685   
    117. B(H  99,O  20)                  0.9614         0.517196   
    118. B(H 100,O  29)                  0.9612         0.517637   
    119. B(H 101,O   9)                  2.1159         0.010000   
    120. B(H 101,O  31)                  0.9669         0.507024   
    121. B(H 102,O   8)                  1.9847         0.012053   
    122. B(H 102,O  32)                  0.9707         0.499892   
    123. B(H 103,O  32)                  2.0324         0.010114   
    124. B(H 103,O  33)                  0.9720         0.497497   
    125. B(H 104,O  33)                  2.1210         0.010000   
    126. B(H 104,O  34)                  0.9684         0.504114   
    127. B(H 105,O  45)                  0.9707         0.500005   
    128. B(H 105,O  20)                  1.9764         0.012427   
    129. B(H 106,O  19)                  2.0661         0.010000   
    130. B(H 106,O  46)                  0.9675         0.505903   
    131. B(H 107,O  48)                  2.0542         0.010000   
    132. B(H 107,O  47)                  0.9691         0.502841   
    133. B(H 108,O  45)                  1.9426         0.014068   
    134. B(H 108,O  48)                  0.9746         0.492726   
    135. B(H 109,O  49)                  0.9611         0.517880   
    136. B(H 110,O  58)                  0.9614         0.517296   
    137. B(H 111,O  34)                  1.9768         0.012407   
    138. B(H 111,O  60)                  0.9709         0.499614   
    139. B(H 112,O  33)                  2.2722         0.010000   
    140. B(H 112,O  61)                  0.9661         0.508483   
    141. B(H 113,O  62)                  0.9689         0.503239   
    142. B(H 113,O  61)                  2.0055         0.011167   
    143. B(H 114,O  63)                  0.9667         0.507357   
    144. B(H 114,O  60)                  2.1620         0.010000   
    145. B(H 115,O  74)                  0.9690         0.503100   
    146. B(H 115,O  48)                  2.0680         0.010000   
    147. B(H 116,O  75)                  0.9707         0.499914   
    148. B(H 116,O  47)                  1.9875         0.011930   
    149. B(H 117,O  76)                  0.9672         0.506397   
    150. B(H 117,O  75)                  2.1339         0.010000   
    151. B(H 118,O  77)                  0.9705         0.500194   
    152. B(H 118,O  74)                  2.0001         0.011390   
    153. B(H 119,O  78)                  0.9613         0.517475   
    154. B(H 120,O  80)                  0.9610         0.518027   
    155. B(H 121,O  82)                  0.9610         0.517956   
    156. B(H 122,O  83)                  0.9655         0.509533   
    157. B(H 122,O  89)                  2.2333         0.010000   
    158. B(H 123,O  86)                  0.9610         0.518024   
    159. B(H 124,O  87)                  0.9615         0.517086   
    160. B(H 125,O  89)                  0.9684         0.504157   
    161. B(H 125,O  77)                  2.0873         0.010000   
    162. B(C 127,N 126)                  1.3776         0.585740   
    163. B(N 128,C 127)                  1.3691         0.604182   
    164. B(C 129,N 128)                  1.3890         0.561571   
    165. B(C 130,C 129)                  1.4341         0.531313   
    166. B(C 131,N 126)                  1.3619         0.620345   
    167. B(C 131,C 130)                  1.3481         0.728640   
    168. B(O 132,C 127)                  1.2197         1.046005   
    169. B(O 132,H 100)                  3.8577         0.010000   
    170. B(O 133,C 129)                  1.2235         1.031741   
    171. B(O 133,O  26)                  3.1546         0.010000   
    172. B(C 134,N 126)                  1.4926         0.383852   
    173. B(C 135,C 134)                  1.5176         0.390938   
    174. B(C 136,C 135)                  1.5223         0.384287   
    175. B(C 137,C 136)                  1.5247         0.380969   
    176. B(O 138,C 136)                  1.4101         0.519728   
    177. B(O 139,C 134)                  1.3917         0.556125   
    178. B(O 139,C 137)                  1.4321         0.479497   
    179. B(C 140,C 137)                  1.5070         0.406525   
    180. B(O 141,C 140)                  1.4156         0.509411   
    181. B(P 142,O 141)                  1.6207         0.806016   
    182. B(O 143,P 142)                  1.4940         1.283835   
    183. B(O 144,P 142)                  1.4857         1.323176   
    184. B(O 145,P 142)                  1.6250         0.793251   
    185. B(H 146,N 128)                  1.0117         0.430061   
    186. B(H 147,C 130)                  1.0799         0.373772   
    187. B(H 148,C 131)                  1.0834         0.368934   
    188. B(H 149,C 134)                  1.0918         0.357751   
    189. B(H 150,C 135)                  1.0922         0.357189   
    190. B(H 151,C 135)                  1.0864         0.364885   
    191. B(H 151,O  30)                  2.9574         0.010000   
    192. B(H 151,O  54)                  2.9916         0.010000   
    193. B(H 152,C 136)                  1.0916         0.358025   
    194. B(H 152,O  30)                  2.4651         0.010000   
    195. B(H 152,O  55)                  2.5723         0.010000   
    196. B(H 152,Si 23)                  3.0114         0.010000   
    197. B(H 152,O 138)                  2.0533         0.010000   
    198. B(H 153,C 137)                  1.0957         0.352692   
    199. B(H 154,O 138)                  0.9639         0.512489   
    200. B(H 154,O  57)                  2.3667         0.010000   
    201. B(H 154,O  59)                  2.9365         0.010000   
    202. B(H 155,C 140)                  1.0958         0.352572   
    203. B(H 155,O  56)                  2.8753         0.010000   
    204. B(H 155,O 141)                  2.0582         0.010000   
    205. B(H 156,C 140)                  1.0929         0.356258   
    206. B(H 156,O  55)                  2.6828         0.010000   
    207. B(H 156,O 141)                  2.0690         0.010000   
    208. B(H 156,P 142)                  2.6357         0.010000   
    209. B(H 157,O 145)                  0.9639         0.512522   
    210. B(H 157,O  68)                  2.3376         0.010000   
    211. B(H 157,P 142)                  2.1621         0.023573   
    212. A(O   4,Si  0,O   7)          110.2088         0.606331   
    213. A(O   3,Si  0,O   7)          114.0684         0.606270   
    214. A(O   3,Si  0,O  16)          106.1599         0.612737   
    215. A(O   7,Si  0,O  16)          106.7530         0.611776   
    216. A(O   4,Si  0,O  16)          111.5163         0.612798   
    217. A(O   3,Si  0,O   4)          108.1095         0.607281   
    218. A(O   6,Si  1,O  26)          109.0796         0.603575   
    219. A(O   4,Si  1,O  26)          112.8054         0.605796   
    220. A(O   4,Si  1,O   8)          110.2120         0.601938   
    221. A(O   8,Si  1,O  26)          102.9245         0.600463   
    222. A(O   4,Si  1,O   6)          110.5558         0.605059   
    223. A(O   6,Si  1,O   8)          111.0463         0.599734   
    224. A(O   6,Si  2,O  25)          110.9258         0.608040   
    225. A(O   9,Si  2,O  25)          103.3598         0.606485   
    226. A(O   6,Si  2,O   9)          113.3869         0.603731   
    227. A(O   5,Si  2,O   6)          108.9248         0.607150   
    228. A(O   5,Si  2,O   9)          109.7196         0.605598   
    229. A(O   5,Si  2,O  25)          110.4313         0.609922   
    230. A(Si  0,O   3,H  90)          117.6128         0.435977   
    231. A(Si  0,O   4,Si  1)          149.2009         0.607314   
    232. A(Si  2,O   5,H  91)          117.4256         0.436592   
    233. A(Si  1,O   6,Si  2)          141.2642         0.604058   
    234. A(Si  0,O   7,H  92)          117.7950         0.435234   
    235. A(Si  1,O   8,H  93)          120.0272         0.432474   
    236. A(Si  2,O   9,H  94)          119.7070         0.434347   
    237. A(O  13,Si 10,O  18)          108.8656         0.608637   
    238. A(O  16,Si 10,O  18)          106.9977         0.611002   
    239. A(O  15,Si 10,O  18)          111.3066         0.606899   
    240. A(O  15,Si 10,O  16)          111.0019         0.608488   
    241. A(O  13,Si 10,O  15)          107.9423         0.606134   
    242. A(O  13,Si 10,O  16)          110.7270         0.610231   
    243. A(O  14,Si 11,O  40)          110.5214         0.610278   
    244. A(O  14,Si 11,O  19)          109.8577         0.606125   
    245. A(O  19,Si 11,O  40)          103.6334         0.606425   
    246. A(O  14,Si 11,O  17)          109.0398         0.606784   
    247. A(O  17,Si 11,O  40)          110.8124         0.607084   
    248. A(O  17,Si 11,O  19)          112.8939         0.602957   
    249. A(O  15,Si 12,Si 35)          124.9643         0.338878   
    250. A(O  15,Si 12,O  20)          110.7218         0.604811   
    251. A(O  17,Si 12,Si 35)          112.6606         0.336768   
    252. A(Si 35,Si 12,O  39)           21.2560         0.336860   
    253. A(O  17,Si 12,O  39)          108.0703         0.601347   
    254. A(O  20,Si 12,O  39)          103.7396         0.600646   
    255. A(O  17,Si 12,O  20)          111.4730         0.600455   
    256. A(O  15,Si 12,O  39)          112.0271         0.605710   
    257. A(O  20,Si 12,Si 35)           82.9452         0.336429   
    258. A(O  15,Si 12,O  17)          110.6096         0.605517   
    259. A(Si 10,O  13,H  95)          117.8459         0.436183   
    260. A(Si 11,O  14,H  96)          117.6468         0.436917   
    261. A(Si 10,O  15,Si 12)          152.2224         0.607153   
    262. A(Si  0,O  16,Si 10)          151.6088         0.615450   
    263. A(Si 11,O  17,Si 12)          141.5125         0.602382   
    264. A(Si 10,O  18,H  97)          117.4000         0.436581   
    265. A(Si 11,O  19,H  98)          119.8407         0.434366   
    266. A(Si 12,O  20,H  99)          120.1080         0.433434   
    267. A(O  25,Si 21,O  29)          110.1428         0.606846   
    268. A(O  29,Si 21,O  31)          106.9985         0.609178   
    269. A(O  25,Si 21,O  31)          109.0578         0.606065   
    270. A(O  25,Si 21,O  28)          110.2933         0.602436   
    271. A(O  28,Si 21,O  29)          108.4333         0.605528   
    272. A(O  28,Si 21,O  31)          111.8572         0.604748   
    273. A(O  27,Si 22,O  32)          106.1548         0.600929   
    274. A(O  26,Si 22,O  43)          109.3025         0.608298   
    275. A(O  27,Si 22,O  43)          108.4389         0.605206   
    276. A(O  26,Si 22,O  32)          110.0731         0.603996   
    277. A(O  26,Si 22,O  27)          111.5388         0.605294   
    278. A(O  32,Si 22,O  43)          111.3037         0.603908   
    279. A(O  27,Si 23,O  30)          111.4318         0.606670   
    280. A(O  55,Si 23,H 152)           58.6433         0.193033   
    281. A(O  30,Si 23,O  55)          109.1038         0.605500   
    282. A(O  27,Si 23,O  33)          110.0626         0.602091   
    283. A(O  27,Si 23,H 152)          107.9547         0.193269   
    284. A(O  33,Si 23,H 152)          141.9437         0.191874   
    285. A(O  27,Si 23,O  55)          109.4063         0.607875   
    286. A(O  30,Si 23,H 152)           54.8741         0.192792   
    287. A(O  33,Si 23,O  55)          108.8148         0.600932   
    288. A(O  30,Si 23,O  33)          107.9697         0.599743   
    289. A(O  28,Si 24,O  54)          110.0836         0.601177   
    290. A(O  28,Si 24,O  30)          108.0221         0.603226   
    291. A(O  30,Si 24,O  54)          112.4755         0.596362   
    292. A(O  34,Si 24,O  54)          105.6883         0.595924   
    293. A(O  28,Si 24,Si 50)          125.4169         0.339290   
    294. A(Si 50,Si 24,O  54)           22.0495         0.335949   
    295. A(O  30,Si 24,Si 50)          115.1197         0.336937   
    296. A(O  34,Si 24,Si 50)           84.4746         0.336723   
    297. A(O  30,Si 24,O  34)          108.2859         0.597952   
    298. A(O  28,Si 24,O  34)          112.3279         0.602783   
    299. A(Si  2,O  25,Si 21)          140.2662         0.607269   
    300. A(Si  1,O  26,Si 22)          138.6930         0.606344   
    301. A(Si 22,O  27,Si 23)          138.2890         0.605623   
    302. A(Si 21,O  28,Si 24)          144.7451         0.604606   
    303. A(Si 21,O  29,H 100)          117.3884         0.436927   
    304. A(Si 23,O  30,H 151)          137.2128         0.154807   
    305. A(Si 23,O  30,H 152)           92.3940         0.188091   
    306. A(Si 24,O  30,H 152)          121.9462         0.187521   
    307. A(Si 24,O  30,H 151)           83.5133         0.154428   
    308. A(H 151,O  30,H 152)           51.9231         0.101654   
    309. A(Si 23,O  30,Si 24)          139.2733         0.601338   
    310. A(Si 21,O  31,H 101)          114.1658         0.434776   
    311. A(Si 22,O  32,H 102)          114.0818         0.430754   
    312. A(Si 23,O  33,H 103)          113.8769         0.428903   
    313. A(Si 24,O  34,H 104)          115.1505         0.430690   
    314. A(Si 12,Si 35,O  39)           21.3128         0.337716   
    315. A(Si 12,Si 35,O  45)           88.8015         0.336406   
    316. A(Si 38,Si 35,O  39)          122.4977         0.339411   
    317. A(O  39,Si 35,O  43)          109.8085         0.608118   
    318. A(Si 38,Si 35,O  45)           84.5247         0.338093   
    319. A(Si 38,Si 35,O  43)          115.6891         0.340884   
    320. A(O  42,Si 35,O  43)          108.6306         0.605113   
    321. A(Si 12,Si 35,O  43)          120.9620         0.339178   
    322. A(O  39,Si 35,O  45)          110.0897         0.602366   
    323. A(O  42,Si 35,O  45)          106.0750         0.599394   
    324. A(Si 38,Si 35,O  42)           21.6847         0.337962   
    325. A(O  39,Si 35,O  42)          111.0476         0.602096   
    326. A(Si 12,Si 35,Si 38)          121.3125         0.209681   
    327. A(O  43,Si 35,O  45)          111.1322         0.605384   
    328. A(Si 12,Si 35,O  42)          118.3048         0.336276   
    329. A(O  40,Si 36,O  41)          110.1754         0.601436   
    330. A(O  40,Si 36,O  46)          109.1418         0.605137   
    331. A(O  41,Si 36,O  46)          111.8381         0.605134   
    332. A(O  40,Si 36,O  49)          110.0089         0.605630   
    333. A(O  41,Si 36,O  49)          108.5040         0.605626   
    334. A(O  46,Si 36,O  49)          107.1177         0.609357   
    335. A(O  41,Si 37,O  47)          111.9666         0.602511   
    336. A(O  44,Si 37,O  47)          108.3822         0.596219   
    337. A(Si 65,Si 37,O  69)           21.8186         0.336338   
    338. A(O  41,Si 37,O  44)          108.3710         0.601270   
    339. A(O  41,Si 37,Si 65)          125.2063         0.338925   
    340. A(O  44,Si 37,Si 65)          114.9564         0.335863   
    341. A(O  47,Si 37,Si 65)           84.7227         0.336461   
    342. A(O  47,Si 37,O  69)          105.7458         0.597196   
    343. A(O  41,Si 37,O  69)          110.2113         0.602256   
    344. A(O  44,Si 37,O  69)          112.1808         0.595968   
    345. A(O  42,Si 38,O  68)          109.4570         0.603922   
    346. A(O  44,Si 38,O  68)          109.8265         0.603479   
    347. A(O  48,Si 38,O  68)          108.1005         0.596889   
    348. A(O  42,Si 38,O  44)          111.9453         0.605780   
    349. A(Si 35,Si 38,O  42)           21.8011         0.339688   
    350. A(Si 35,Si 38,O  48)           87.7871         0.336264   
    351. A(Si 35,Si 38,O  44)          122.1305         0.339472   
    352. A(O  42,Si 38,O  48)          109.5635         0.599160   
    353. A(Si 35,Si 38,O  68)          117.3994         0.338572   
    354. A(O  44,Si 38,O  48)          107.8599         0.598721   
    355. A(Si 12,O  39,Si 35)          137.4312         0.603308   
    356. A(Si 11,O  40,Si 36)          139.1843         0.605990   
    357. A(Si 36,O  41,Si 37)          145.2600         0.604519   
    358. A(Si 35,O  42,Si 38)          136.5142         0.602663   
    359. A(Si 22,O  43,Si 35)          146.9327         0.609688   
    360. A(Si 37,O  44,Si 38)          137.7433         0.600138   
    361. A(Si 35,O  45,H 105)          114.7884         0.430778   
    362. A(Si 36,O  46,H 106)          114.1388         0.434759   
    363. A(Si 37,O  47,H 107)          114.9286         0.430473   
    364. A(Si 38,O  48,H 108)          113.6306         0.427145   
    365. A(Si 36,O  49,H 109)          117.5041         0.436927   
    366. A(Si 24,Si 50,O  60)           88.5566         0.338229   
    367. A(O  54,Si 50,O  60)          110.2072         0.602002   
    368. A(O  57,Si 50,O  60)          108.8723         0.603812   
    369. A(O  58,Si 50,O  60)          107.6766         0.607435   
    370. A(Si 24,Si 50,O  54)           22.1496         0.337400   
    371. A(Si 24,Si 50,O  57)          115.2698         0.338277   
    372. A(O  54,Si 50,O  57)          110.2551         0.602099   
    373. A(Si 24,Si 50,O  58)          123.3700         0.340031   
    374. A(O  54,Si 50,O  58)          109.9630         0.605711   
    375. A(O  57,Si 50,O  58)          109.8198         0.607534   
    376. A(O  55,Si 51,O  61)          109.4958         0.602211   
    377. A(O  56,Si 51,O  61)          107.4458         0.602288   
    378. A(O  55,Si 51,O  72)          110.2531         0.604403   
    379. A(O  56,Si 51,O  72)          109.7250         0.604479   
    380. A(O  61,Si 51,O  72)          110.1861         0.601709   
    381. A(O  55,Si 51,O  56)          109.6875         0.604984   
    382. A(O  56,Si 52,O  62)          108.6041         0.600422   
    383. A(O  59,Si 52,O  62)          108.9080         0.600285   
    384. A(O  56,Si 52,O  81)          106.8659         0.598680   
    385. A(O  59,Si 52,O  81)          109.8024         0.598544   
    386. A(O  62,Si 52,O  81)          110.6841         0.605398   
    387. A(O  56,Si 52,O  59)          111.9674         0.593633   
    388. A(O  57,Si 53,O  63)          108.5956         0.602794   
    389. A(O  59,Si 53,O  63)          113.5756         0.606271   
    390. A(O  57,Si 53,O  80)          110.4807         0.603080   
    391. A(O  59,Si 53,O  80)          107.5572         0.606559   
    392. A(O  63,Si 53,O  80)          106.6304         0.609482   
    393. A(O  57,Si 53,O  59)          109.9472         0.599909   
    394. A(Si 50,O  54,H 151)          134.5400         0.152716   
    395. A(Si 24,O  54,H 151)           82.3199         0.152343   
    396. A(Si 24,O  54,Si 50)          135.8009         0.597308   
    397. A(Si 23,O  55,H 152)           88.6658         0.179858   
    398. A(Si 51,O  55,H 152)          116.4164         0.179700   
    399. A(Si 51,O  55,H 156)          106.6754         0.171736   
    400. A(Si 23,O  55,H 156)          111.3843         0.171880   
    401. A(H 152,O  55,H 156)           53.5334         0.103546   
    402. A(Si 23,O  55,Si 51)          141.8810         0.605804   
    403. A(Si 51,O  56,H 155)           89.0176         0.159511   
    404. A(Si 52,O  56,H 155)          133.4418         0.158735   
    405. A(Si 51,O  56,Si 52)          137.4596         0.599383   
    406. A(Si 53,O  57,H 154)          103.3477         0.195720   
    407. A(Si 50,O  57,H 154)          113.3274         0.196499   
    408. A(Si 50,O  57,Si 53)          137.6138         0.600179   
    409. A(Si 50,O  58,H 110)          117.9535         0.437282   
    410. A(Si 52,O  59,Si 53)          142.8282         0.598408   
    411. A(Si 53,O  59,H 154)           82.7793         0.155903   
    412. A(Si 52,O  59,H 154)          111.4783         0.155258   
    413. A(Si 50,O  60,H 111)          113.8717         0.432070   
    414. A(Si 51,O  61,H 112)          116.2238         0.432036   
    415. A(Si 52,O  62,H 113)          114.3042         0.433781   
    416. A(Si 53,O  63,H 114)          114.9867         0.435094   
    417. A(Si 67,Si 64,O  71)           21.5667         0.336955   
    418. A(O  68,Si 64,O  71)          109.2745         0.600867   
    419. A(Si 67,Si 64,O  72)          115.5020         0.337637   
    420. A(O  68,Si 64,O  72)          109.7431         0.602274   
    421. A(O  71,Si 64,O  72)          110.4374         0.604900   
    422. A(Si 67,Si 64,O  74)           86.0530         0.336302   
    423. A(O  68,Si 64,O  74)          109.5053         0.599518   
    424. A(O  71,Si 64,O  74)          107.1217         0.602130   
    425. A(Si 67,Si 64,O  68)          122.4111         0.335693   
    426. A(O  72,Si 64,O  74)          110.7105         0.603541   
    427. A(Si 37,Si 65,Si 66)          123.5364         0.209753   
    428. A(Si 37,Si 65,O  69)           21.8918         0.337412   
    429. A(Si 66,Si 65,O  69)          126.5496         0.338059   
    430. A(Si 37,Si 65,O  70)          115.0450         0.338667   
    431. A(Si 66,Si 65,O  70)           21.5491         0.339317   
    432. A(O  69,Si 65,O  70)          110.4738         0.603950   
    433. A(Si 37,Si 65,O  75)           88.6794         0.337598   
    434. A(Si 66,Si 65,O  75)           88.8136         0.338245   
    435. A(O  69,Si 65,O  75)          109.9724         0.601745   
    436. A(O  70,Si 65,O  75)          109.0716         0.604335   
    437. A(Si 37,Si 65,O  78)          123.3798         0.339588   
    438. A(Si 66,Si 65,O  78)          111.0168         0.340241   
    439. A(O  69,Si 65,O  78)          109.8510         0.605850   
    440. A(O  70,Si 65,O  78)          109.9593         0.608462   
    441. A(O  75,Si 65,O  78)          107.4573         0.606237   
    442. A(Si 65,Si 66,O  70)           21.4650         0.338057   
    443. A(O  70,Si 66,O  73)          110.1633         0.601741   
    444. A(Si 65,Si 66,O  76)           87.4572         0.339725   
    445. A(O  70,Si 66,O  76)          108.8944         0.604784   
    446. A(O  73,Si 66,O  76)          112.7106         0.605177   
    447. A(Si 65,Si 66,O  86)          118.0977         0.340090   
    448. A(O  70,Si 66,O  86)          110.8575         0.605535   
    449. A(Si 65,Si 66,O  73)          121.8748         0.338246   
    450. A(O  73,Si 66,O  86)          107.4384         0.605928   
    451. A(O  76,Si 66,O  86)          106.7317         0.608996   
    452. A(Si 64,Si 67,O  73)          123.7071         0.335925   
    453. A(O  71,Si 67,O  73)          112.2139         0.598156   
    454. A(Si 64,Si 67,O  77)           87.2018         0.335737   
    455. A(O  73,Si 67,O  77)          110.5205         0.598831   
    456. A(Si 64,Si 67,Si 84)          117.8027         0.209517   
    457. A(O  71,Si 67,Si 84)          119.5754         0.337505   
    458. A(O  73,Si 67,Si 84)          116.5432         0.338023   
    459. A(O  77,Si 67,Si 84)           85.6088         0.337834   
    460. A(Si 64,Si 67,O  85)          114.6611         0.336626   
    461. A(O  71,Si 67,O  77)          108.6072         0.597769   
    462. A(O  71,Si 67,O  85)          108.0990         0.599602   
    463. A(O  73,Si 67,O  85)          110.0534         0.600667   
    464. A(O  77,Si 67,O  85)          107.1838         0.600278   
    465. A(Si 64,Si 67,O  71)           21.4629         0.335411   
    466. A(Si 84,Si 67,O  85)           21.8054         0.338730   
    467. A(Si 38,O  68,Si 64)          137.2912         0.599942   
    468. A(Si 38,O  68,H 157)          120.8667         0.198894   
    469. A(Si 64,O  68,H 157)          100.6745         0.198532   
    470. A(Si 37,O  69,Si 65)          136.2896         0.599148   
    471. A(Si 65,O  70,Si 66)          136.9859         0.603945   
    472. A(Si 64,O  71,Si 67)          136.9704         0.600281   
    473. A(Si 51,O  72,Si 64)          148.9113         0.605107   
    474. A(Si 66,O  73,Si 67)          143.5903         0.600673   
    475. A(Si 64,O  74,H 115)          115.5919         0.431629   
    476. A(Si 65,O  75,H 116)          113.7978         0.431588   
    477. A(Si 66,O  76,H 117)          114.7254         0.434629   
    478. A(Si 67,O  77,H 118)          114.3123         0.430399   
    479. A(Si 65,O  78,H 119)          117.8415         0.437040   
    480. A(O  81,Si 79,O  82)          109.6350         0.608067   
    481. A(O  81,Si 79,O  83)          111.2062         0.605375   
    482. A(O  82,Si 79,O  83)          109.4653         0.607473   
    483. A(O  81,Si 79,Si 84)          109.0970         0.343603   
    484. A(O  82,Si 79,Si 84)          125.0419         0.344637   
    485. A(O  83,Si 79,Si 84)           90.7441         0.343312   
    486. A(O  81,Si 79,O  88)          110.5412         0.604940   
    487. A(O  82,Si 79,O  88)          106.0000         0.607036   
    488. A(O  83,Si 79,O  88)          109.8551         0.604349   
    489. A(Si 84,Si 79,O  88)           22.3536         0.343097   
    490. A(Si 53,O  80,H 120)          117.3434         0.436922   
    491. A(Si 52,O  81,Si 79)          145.2778         0.604802   
    492. A(Si 79,O  82,H 121)          117.4161         0.437046   
    493. A(Si 79,O  83,H 122)          114.8406         0.433958   
    494. A(Si 67,Si 84,Si 79)          126.1477         0.212451   
    495. A(Si 67,Si 84,O  85)           21.8060         0.338739   
    496. A(Si 67,Si 84,O  87)          111.5555         0.340362   
    497. A(Si 79,Si 84,O  87)          120.8062         0.344312   
    498. A(O  85,Si 84,O  87)          110.4440         0.605492   
    499. A(Si 67,Si 84,O  88)          126.6179         0.339777   
    500. A(Si 79,Si 84,O  88)           22.3961         0.343718   
    501. A(O  85,Si 84,O  88)          110.4633         0.604290   
    502. A(O  87,Si 84,O  88)          109.6799         0.607639   
    503. A(Si 67,Si 84,O  89)           89.8575         0.338914   
    504. A(Si 79,Si 84,O  89)           85.6657         0.342840   
    505. A(Si 79,Si 84,O  85)          117.9336         0.342663   
    506. A(O  85,Si 84,O  89)          110.1803         0.602515   
    507. A(O  87,Si 84,O  89)          108.0783         0.605853   
    508. A(O  88,Si 84,O  89)          107.9275         0.604650   
    509. A(Si 67,O  85,Si 84)          136.3886         0.602138   
    510. A(Si 66,O  86,H 123)          117.4125         0.436914   
    511. A(Si 84,O  87,H 124)          118.0419         0.436470   
    512. A(Si 79,O  88,Si 84)          135.2503         0.605172   
    513. A(Si 84,O  89,H 125)          114.3911         0.432493   
    514. A(C 127,N 126,C 131)          120.9745         0.424114   
    515. A(C 127,N 126,C 134)          115.8133         0.389613   
    516. A(C 131,N 126,C 134)          122.1809         0.393544   
    517. A(N 126,C 127,N 128)          115.0835         0.422118   
    518. A(N 126,C 127,O 132)          122.6010         0.466180   
    519. A(N 128,C 127,O 132)          122.3125         0.468836   
    520. A(C 127,N 128,C 129)          127.5491         0.418956   
    521. A(C 127,N 128,H 146)          115.2385         0.356724   
    522. A(C 129,N 128,H 146)          116.9066         0.352328   
    523. A(N 128,C 129,C 130)          113.2424         0.412155   
    524. A(N 128,C 129,O 133)          120.0039         0.461441   
    525. A(C 130,C 129,O 133)          126.7505         0.459852   
    526. A(C 129,C 130,C 131)          120.0316         0.434620   
    527. A(C 129,C 130,H 147)          119.3493         0.346006   
    528. A(C 131,C 130,H 147)          120.6011         0.365050   
    529. A(N 126,C 131,C 130)          122.8323         0.444009   
    530. A(N 126,C 131,H 148)          116.2882         0.352210   
    531. A(C 130,C 131,H 148)          120.8721         0.364237   
    532. A(N 126,C 134,C 135)          114.3617         0.365600   
    533. A(N 126,C 134,O 139)          109.2438         0.386104   
    534. A(C 135,C 134,O 139)          106.9806         0.389812   
    535. A(N 126,C 134,H 149)          104.9731         0.323473   
    536. A(C 135,C 134,H 149)          111.8499         0.326399   
    537. A(O 139,C 134,H 149)          109.3737         0.343997   
    538. A(C 134,C 135,C 136)          104.2841         0.367966   
    539. A(C 134,C 135,H 150)          108.5124         0.326315   
    540. A(C 136,C 135,H 150)          108.5237         0.325395   
    541. A(C 134,C 135,H 151)          112.8745         0.327462   
    542. A(C 136,C 135,H 151)          114.0482         0.326538   
    543. A(H 150,C 135,H 151)          108.3857         0.291072   
    544. A(C 135,C 136,C 137)          103.1097         0.366340   
    545. A(C 135,C 136,O 138)          114.2185         0.384090   
    546. A(C 137,C 136,O 138)          109.6553         0.383511   
    547. A(C 135,C 136,H 152)          110.4396         0.325520   
    548. A(C 137,C 136,H 152)          109.5197         0.325056   
    549. A(O 138,C 136,H 152)          109.6680         0.340164   
    550. A(C 136,C 137,O 139)          106.5576         0.378189   
    551. A(C 136,C 137,C 140)          112.1977         0.369894   
    552. A(O 139,C 137,C 140)          110.4614         0.382471   
    553. A(C 136,C 137,H 153)          109.4141         0.324256   
    554. A(O 139,C 137,H 153)          107.9767         0.334789   
    555. A(C 140,C 137,H 153)          110.0895         0.327738   
    556. A(C 136,O 138,H 154)          108.4418         0.358230   
    557. A(C 134,O 139,C 137)          111.9877         0.401448   
    558. A(C 137,C 140,O 141)          110.7335         0.386518   
    559. A(C 137,C 140,H 155)          108.2510         0.327720   
    560. A(O 141,C 140,H 155)          109.4258         0.338159   
    561. A(C 137,C 140,H 156)          109.4303         0.328283   
    562. A(O 141,C 140,H 156)          110.4736         0.338747   
    563. A(H 155,C 140,H 156)          108.4666         0.289390   
    564. A(C 140,O 141,P 142)          119.3812         0.463333   
    565. A(O 141,P 142,O 143)          110.1667         0.590387   
    566. A(O 141,P 142,O 144)          104.9521         0.593823   
    567. A(O 143,P 142,O 144)          121.3911         0.649915   
    568. A(O 141,P 142,O 145)          102.0239         0.538620   
    569. A(O 143,P 142,O 145)          108.0170         0.588578   
    570. A(O 144,P 142,O 145)          108.5900         0.592003   
    571. A(P 142,O 145,H 157)          110.6528         0.410918   
    572. A(O  30,H 151,C 135)          115.7549         0.130309   
    573. A(O  54,H 151,C 135)          131.8945         0.129152   
    574. A(O  30,H 151,O  54)           54.5260         0.097169   
    575. A(O  30,H 152,C 136)          139.4764         0.150935   
    576. A(O  55,H 152,C 136)          156.9991         0.145657   
    577. A(O  30,H 152,O  55)           63.5179         0.106431   
    578. A(Si 23,H 152,C 136)          168.2963         0.153874   
    579. A(Si 23,H 152,O  30)           32.7319         0.108959   
    580. A(Si 23,H 152,O  55)           32.6909         0.107258   
    581. A(O  57,H 154,O 138)          163.0536         0.161051   
    582. A(O  59,H 154,O 138)          114.9323         0.133865   
    583. A(O  57,H 154,O  59)           59.4982         0.102975   
    584. A(O  56,H 155,C 140)          141.3553         0.132887   
    585. A(O  55,H 156,C 140)          122.5297         0.140625   
    586. A(O  68,H 157,O 145)          139.9579         0.162821   
    587. D(H  90,O   3,Si  0,O   4)    -41.4809         0.015440   
    588. D(H  90,O   3,Si  0,O   7)     81.4840         0.015440   
    589. D(Si  1,O   4,Si  0,O   3)    154.4539         0.013345   
    590. D(Si  1,O   4,Si  0,O   7)     29.1712         0.013345   
    591. D(Si  0,O   4,Si  1,O   6)   -135.6315         0.013339   
    592. D(Si  0,O   4,Si  1,O   8)    -12.4858         0.013339   
    593. D(H  91,O   5,Si  2,O   6)    -22.9359         0.013528   
    594. D(H  91,O   5,Si  2,O   9)   -147.5925         0.013528   
    595. D(Si  2,O   6,Si  1,O   4)    103.0609         0.012868   
    596. D(Si  1,O   6,Si  2,O   5)   -100.8634         0.013124   
    597. D(Si  1,O   6,Si  2,O   9)     21.6097         0.013124   
    598. D(Si  2,O   6,Si  1,O   8)    -19.5995         0.012868   
    599. D(H  92,O   7,Si  0,O   3)    -60.6196         0.013129   
    600. D(H  92,O   7,Si  0,O   4)     61.1955         0.013129   
    601. D(H  93,O   8,Si  1,O   4)    -44.7391         0.013223   
    602. D(H  93,O   8,Si  1,O   6)     78.1197         0.013223   
    603. D(H  94,O   9,Si  2,O   5)     54.2388         0.013838   
    604. D(H  94,O   9,Si  2,O   6)    -67.7926         0.013838   
    605. D(H  95,O  13,Si 10,O  15)    -46.2357         0.013402   
    606. D(H  95,O  13,Si 10,O  16)     75.4541         0.013402   
    607. D(H  96,O  14,Si 11,O  17)     22.0132         0.013632   
    608. D(H  96,O  14,Si 11,O  19)    146.2209         0.013632   
    609. D(Si 12,O  15,Si 10,O  13)   -153.5238         0.013032   
    610. D(Si 12,O  15,Si 10,O  16)     84.9567         0.013032   
    611. D(Si 10,O  15,Si 12,O  17)    135.4003         0.014739   
    612. D(Si 10,O  15,Si 12,O  20)     11.3161         0.014739   
    613. D(Si 10,O  16,Si  0,O   3)    -95.9745         0.014577   
    614. D(Si 10,O  16,Si  0,O   4)    146.5027         0.014577   
    615. D(Si  0,O  16,Si 10,O  13)     98.7740         0.013923   
    616. D(Si  0,O  16,Si 10,O  15)   -141.3525         0.013923   
    617. D(Si 12,O  17,Si 11,O  14)    100.7967         0.012948   
    618. D(Si 12,O  17,Si 11,O  19)    -21.6018         0.012948   
    619. D(Si 11,O  17,Si 12,O  15)   -102.4493         0.013721   
    620. D(Si 11,O  17,Si 12,O  20)     21.2030         0.013721   
    621. D(H  97,O  18,Si 10,O  13)     59.2517         0.013569   
    622. D(H  97,O  18,Si 10,O  15)    -59.6105         0.013569   
    623. D(H  98,O  19,Si 11,O  14)    -54.1650         0.013851   
    624. D(H  98,O  19,Si 11,O  17)     67.7743         0.013851   
    625. D(H  99,O  20,Si 12,O  15)     45.5517         0.014519   
    626. D(H  99,O  20,Si 12,O  17)    -78.0369         0.014519   
    627. D(Si  2,O  25,Si 21,O  28)     96.3954         0.012963   
    628. D(Si 21,O  25,Si  2,O   6)   -106.2578         0.013724   
    629. D(Si  2,O  25,Si 21,O  29)   -143.9532         0.012963   
    630. D(Si 21,O  25,Si  2,O   5)    132.8796         0.013724   
    631. D(Si  1,O  26,Si 22,O  27)   -112.3205         0.014556   
    632. D(Si  1,O  26,Si 22,O  32)      5.2405         0.014556   
    633. D(Si 22,O  26,Si  1,O   4)   -130.2432         0.014080   
    634. D(Si 22,O  26,Si  1,O   6)    106.4947         0.014080   
    635. D(Si 23,O  27,Si 22,O  26)    124.0041         0.012803   
    636. D(Si 23,O  27,Si 22,O  32)      4.1043         0.012803   
    637. D(Si 22,O  27,Si 23,O  30)   -122.9010         0.014635   
    638. D(Si 22,O  27,Si 23,O  33)     -3.1521         0.014635   
    639. D(Si 24,O  28,Si 21,O  25)   -134.0144         0.012690   
    640. D(Si 24,O  28,Si 21,O  29)    105.3048         0.012690   
    641. D(Si 21,O  28,Si 24,O  30)    140.2421         0.014523   
    642. D(Si 21,O  28,Si 24,O  34)     20.8812         0.014523   
    643. D(H 100,O  29,Si 21,O  25)    -89.9515         0.013630   
    644. D(H 100,O  29,Si 21,O  28)     30.8226         0.013630   
    645. D(Si 24,O  30,Si 23,O  27)    113.2582         0.016016   
    646. D(Si 24,O  30,Si 23,O  33)     -7.7220         0.016016   
    647. D(H 152,O  30,Si 23,O  27)    -97.3977         0.016016   
    648. D(Si 23,O  30,Si 24,O  28)   -108.7173         0.015249   
    649. D(Si 23,O  30,Si 24,O  34)     13.1709         0.015249   
    650. D(H 152,O  30,Si 24,O  28)    108.1786         0.015249   
    651. D(H 101,O  31,Si 21,O  25)     18.0829         0.013459   
    652. D(H 101,O  31,Si 21,O  28)   -104.1886         0.013459   
    653. D(H 102,O  32,Si 22,O  26)      6.5676         0.013552   
    654. D(H 102,O  32,Si 22,O  27)    127.4177         0.013552   
    655. D(H 103,O  33,Si 23,O  27)      1.2451         0.014851   
    656. D(H 103,O  33,Si 23,O  30)    123.0748         0.014851   
    657. D(H 104,O  34,Si 24,O  28)    103.0729         0.014252   
    658. D(H 104,O  34,Si 24,O  30)    -16.1338         0.014252   
    659. D(Si 38,Si 35,Si 12,O  15)   -157.4837         0.010000   
    660. D(Si 38,Si 35,Si 12,O  17)    -18.2477         0.010000   
    661. D(O  39,Si 35,Si 12,O  15)    -57.6369         0.010000   
    662. D(O  42,Si 38,Si 35,Si 12)     88.4092         0.010000   
    663. D(O  42,Si 38,Si 35,O  39)     63.2845         0.010000   
    664. D(O  44,Si 38,Si 35,Si 12)     20.8568         0.010000   
    665. D(Si 35,O  39,Si 12,O  15)    131.6927         0.013764   
    666. D(Si 35,O  39,Si 12,O  17)   -106.2059         0.013764   
    667. D(Si 12,O  39,Si 35,Si 38)     93.5877         0.015171   
    668. D(Si 12,O  39,Si 35,O  42)    114.2984         0.015171   
    669. D(Si 36,O  40,Si 11,O  14)   -133.4171         0.013698   
    670. D(Si 36,O  40,Si 11,O  17)    105.5906         0.013698   
    671. D(Si 11,O  40,Si 36,O  41)    -98.6230         0.014722   
    672. D(Si 11,O  40,Si 36,O  46)     24.5407         0.014722   
    673. D(Si 37,O  41,Si 36,O  40)    134.6360         0.014721   
    674. D(Si 37,O  41,Si 36,O  46)     13.0621         0.014721   
    675. D(Si 36,O  41,Si 37,O  44)   -140.8422         0.014466   
    676. D(Si 36,O  41,Si 37,O  47)    -21.3537         0.014466   
    677. D(Si 38,O  42,Si 35,Si 12)   -104.0720         0.014443   
    678. D(Si 38,O  42,Si 35,O  39)   -126.1733         0.014443   
    679. D(Si 35,O  42,Si 38,O  44)    122.4548         0.014302   
    680. D(Si 35,O  42,Si 38,O  48)      2.8452         0.014302   
    681. D(Si 35,O  43,Si 22,O  26)   -110.1959         0.013439   
    682. D(Si 35,O  43,Si 22,O  27)    128.0130         0.013439   
    683. D(Si 22,O  43,Si 35,Si 12)     88.4401         0.015949   
    684. D(Si 22,O  43,Si 35,Si 38)   -107.5854         0.015949   
    685. D(Si 38,O  44,Si 37,O  41)    107.8837         0.013044   
    686. D(Si 38,O  44,Si 37,O  47)    -13.8320         0.013044   
    687. D(Si 37,O  44,Si 38,Si 35)    -89.4895         0.014198   
    688. D(Si 37,O  44,Si 38,O  42)   -111.2087         0.014198   
    689. D(H 105,O  45,Si 35,Si 12)     -9.8175         0.015411   
    690. D(H 105,O  45,Si 35,Si 38)   -131.4324         0.015411   
    691. D(H 106,O  46,Si 36,O  40)    -16.1140         0.015650   
    692. D(H 106,O  46,Si 36,O  41)    106.0538         0.015650   
    693. D(H 107,O  47,Si 37,O  41)   -105.2373         0.014244   
    694. D(H 107,O  47,Si 37,O  44)     14.2446         0.014244   
    695. D(H 108,O  48,Si 38,Si 35)      1.6849         0.014479   
    696. D(H 108,O  48,Si 38,O  42)      0.6279         0.014479   
    697. D(H 109,O  49,Si 36,O  40)     90.7455         0.015778   
    698. D(H 109,O  49,Si 36,O  41)    -29.8471         0.015778   
    699. D(O  54,Si 50,Si 24,O  28)    -50.7078         0.010000   
    700. D(O  54,Si 50,Si 24,O  30)     88.1163         0.010000   
    701. D(O  57,Si 50,Si 24,O  28)   -132.4146         0.010000   
    702. D(Si 50,O  54,Si 24,O  28)    137.8130         0.013882   
    703. D(Si 50,O  54,Si 24,O  30)   -101.6724         0.013882   
    704. D(H 151,O  54,Si 24,O  28)    -70.9602         0.013882   
    705. D(Si 24,O  54,Si 50,O  57)    107.4773         0.014584   
    706. D(Si 24,O  54,Si 50,O  58)   -131.2870         0.014584   
    707. D(H 151,O  54,Si 50,Si 24)   -137.9896         0.014584   
    708. D(Si 51,O  55,Si 23,O  27)   -126.5977         0.018136   
    709. D(Si 51,O  55,Si 23,O  30)    111.2618         0.018136   
[...]
                   ___                                                        
                  /   \      - P O W E R E D   B Y -                         
                 /     \                                                     
                 |  |  |   _    _      __       _____    __    __             
                 |  |  |  | |  | |    /  \     |  _  \  |  |  /  |          
                  \  \/   | |  | |   /    \    | | | |  |  | /  /          
                 / \  \   | |__| |  /  /\  \   | |_| |  |  |/  /          
                |  |  |   |  __  | /  /__\  \  |    /   |      \           
                |  |  |   | |  | | |   __   |  |    \   |  |\   \          
                \     /   | |  | | |  |  |  |  | |\  \  |  | \   \       
                 \___/    |_|  |_| |__|  |__|  |_| \__\ |__|  \__/        
                                                                              
                      - O R C A' S   B I G   F R I E N D -                    
                                      &                                       
                       - I N T E G R A L  F E E D E R -                       
                                                                              
 v1 FN, 2020, v2 2021, v3 2022-2024                                           
------------------------------------------------------------------------------


----------------------
SHARK INTEGRAL PACKAGE
----------------------

Number of atoms                             ...    158
Number of basis functions                   ...   4288
Number of shells                            ...   1672
Maximum angular momentum                    ...      3
Integral batch strategy                     ... SHARK/LIBINT Hybrid
RI-J (if used) integral strategy            ... SPLIT-RIJ (Revised 2003 algorithm where possible)
Printlevel                                  ...      1
Contraction scheme used                     ... SEGMENTED contraction
Prescreening option                         ... SCHWARTZ
   Thresh                                   ... 2.500e-11
   Tcut                                     ... 2.500e-12
   Tpresel                                  ... 2.500e-12 
Coulomb Range Separation                    ... NOT USED
Exchange Range Separation                   ... NOT USED
Multipole approximations                    ... NOT USED
Finite Nucleus Model                        ... NOT USED
CABS basis                                  ... NOT available
Auxiliary Coulomb fitting basis             ... AVAILABLE
   # of basis functions in Aux-J            ...   5968
   # of shells in Aux-J                     ...   1940
   Maximum angular momentum in Aux-J        ...      4
Auxiliary J/K fitting basis                 ... NOT available
Auxiliary Correlation fitting basis         ... NOT available
Auxiliary 'external' fitting basis          ... NOT available

Checking pre-screening integrals            ... done (  0.0 sec) Dimension = 1672
   => SHARK Basis and OBASIS are compatible. Storing Pre-screening
Shell pair information
Shell pair cut-off parameter TPreSel        ...   2.5e-12
Total number of shell pairs                 ...   1398628
Shell pairs after pre-screening             ...    564699
Total number of primitive shell pairs       ...   4160200
Primitive shell pairs kept                  ...    999170
          la=0 lb=0: 126112 shell pairs
          la=1 lb=0: 199809 shell pairs
          la=1 lb=1:  77207 shell pairs
          la=2 lb=0:  55236 shell pairs
          la=2 lb=1:  46521 shell pairs
          la=2 lb=2:   5432 shell pairs
          la=3 lb=0:  25934 shell pairs
          la=3 lb=1:  22560 shell pairs
          la=3 lb=2:   4772 shell pairs
          la=3 lb=3:   1116 shell pairs

Checking whether 4 symmetric matrices of dimension 4288 fit in memory
:Max Core in MB      =   1500.00
 MB in use           =    645.00
 MB left             =    855.00
 MB needed           =    280.63
 Data fit in memory  = YES
Calculating RI/J V-Matrix + Cholesky decomp.... done (  3.6 sec)
Calculating Nuclear repulsion               ... done (  0.0 sec) ENN=  42461.543468434364 Eh

Diagonalization of the overlap matrix:
Smallest eigenvalue                        ... 3.541e-08
Time for diagonalization                   ...   20.105 sec
Threshold for overlap eigenvalues          ... 1.000e-07
Number of eigenvalues below threshold      ... 2
Smallest eigenvalue above threshold        ... 1.275e-07

IMPORTANT:
Smallest eigenvalue of S below the DiffSThresh (1.000e-06) while
Thresh>1e-12 and/or TCut>1e-13! In order to avoid SCF convergence issues,
Thresh will be set to at least 1e-12 and TCut to at least 1e-13.
This can be turned off by adding %SCF DiffSThresh -1 END to the input.

Time for construction of square roots      ...    8.334 sec
Total time needed                          ...   28.516 sec

-------------------
DFT GRID GENERATION
-------------------

General Integration Accuracy     IntAcc      ... 4.388
Radial Grid Type                 RadialGrid  ... OptM3 with GC (2021)
Angular Grid (max. ang.)         AngularGrid ... 4 (Lebedev-302)
Angular grid pruning method      GridPruning ... 4 (adaptive)
Weight generation scheme         WeightScheme... mBecke (2022)
Basis function cutoff            BFCut       ... 1.0000e-11
Integration weight cutoff        WCut        ... 1.0000e-14
Partially contracted basis set               ... off
Rotationally invariant grid construction     ... off
Angular grids for H and He will be reduced by one unit
Diffuse basis detected: some atoms will have their outermost
                        angular grid increased by 1.

Total number of grid points                  ...   864439
Total number of batches                      ...    13582
Average number of points per batch           ...       63
Average number of grid points per atom       ...     5471

--------------------
COSX GRID GENERATION
--------------------

GRIDX 1
-------
General Integration Accuracy     IntAcc      ... 3.816
Radial Grid Type                 RadialGrid  ... OptM3 with GC (2021)
Angular Grid (max. ang.)         AngularGrid ... 1 (Lebedev-50)
Angular grid pruning method      GridPruning ... 4 (adaptive)
Weight generation scheme         WeightScheme... mBecke (2022)
Basis function cutoff            BFCut       ... 1.0000e-11
Integration weight cutoff        WCut        ... 1.0000e-14
Partially contracted basis set               ... on
Rotationally invariant grid construction     ... off
Angular grids for H and He will be reduced by one unit
Diffuse basis detected: some atoms will have their outermost
                        angular grid increased by 1.

Total number of grid points                  ...   134961
Total number of batches                      ...     1147
Average number of points per batch           ...      117
Average number of grid points per atom       ...      854
UseSFitting                                  ... on

GRIDX 2
-------
General Integration Accuracy     IntAcc      ... 4.020
Radial Grid Type                 RadialGrid  ... OptM3 with GC (2021)
Angular Grid (max. ang.)         AngularGrid ... 2 (Lebedev-110)
Angular grid pruning method      GridPruning ... 4 (adaptive)
Weight generation scheme         WeightScheme... mBecke (2022)
Basis function cutoff            BFCut       ... 1.0000e-11
Integration weight cutoff        WCut        ... 1.0000e-14
Partially contracted basis set               ... on
Rotationally invariant grid construction     ... off
Angular grids for H and He will be reduced by one unit
Diffuse basis detected: some atoms will have their outermost
                        angular grid increased by 1.

Total number of grid points                  ...   253215
Total number of batches                      ...     2060
Average number of points per batch           ...      122
Average number of grid points per atom       ...     1603
UseSFitting                                  ... on

GRIDX 3
-------
General Integration Accuracy     IntAcc      ... 4.338
Radial Grid Type                 RadialGrid  ... OptM3 with GC (2021)
Angular Grid (max. ang.)         AngularGrid ... 3 (Lebedev-194)
Angular grid pruning method      GridPruning ... 4 (adaptive)
Weight generation scheme         WeightScheme... mBecke (2022)
Basis function cutoff            BFCut       ... 1.0000e-11
Integration weight cutoff        WCut        ... 1.0000e-14
Partially contracted basis set               ... on
Rotationally invariant grid construction     ... off
Angular grids for H and He will be reduced by one unit
Diffuse basis detected: some atoms will have their outermost
                        angular grid increased by 1.

Total number of grid points                  ...   556489
Total number of batches                      ...     4423
Average number of points per batch           ...      125
Average number of grid points per atom       ...     3522
UseSFitting                                  ... on
Grids setup in 182.0 sec
Initializing property integral containers    ... done (  0.0 sec)

SHARK setup successfully completed in 241.3 seconds

Maximum memory used throughout the entire STARTUP-calculation: 1749.7 MB
-------------------------------------------------------------------------------
                                 ORCA GUESS
                   Start orbitals & Density for SCF / CASSCF
-------------------------------------------------------------------------------

------------
SCF SETTINGS
------------
Hamiltonian:
 Density Functional     Method          .... DFT(GTOs)
 Exchange Functional    Exchange        .... PBE
   PBE kappa parameter   XKappa         ....  0.804000
   PBE mue parameter    XMuePBE         ....  0.219520
 Correlation Functional Correlation     .... PBE
   PBE beta parameter  CBetaPBE         ....  0.066725
 LDA part of GGA corr.  LDAOpt          .... PW91-LDA
 Gradients option       PostSCFGGA      .... off
 Hybrid DFT is turned on
   Fraction HF Exchange ScalHFX         ....  0.250000
   Scaling of DF-GGA-X  ScalDFX         ....  0.750000
   Scaling of DF-GGA-C  ScalDFC         ....  1.000000
   Scaling of DF-LDA-C  ScalLDAC        ....  1.000000
   Perturbative correction              ....  0.000000
   NL short-range parameter             ....  6.900000
 RI-approximation to the Coulomb term is turned on
   Number of AuxJ basis functions       .... 5968
   RIJ-COSX (HFX calculated with COS-X)).... on


General Settings:
 Integral files         IntName         .... frame_7_ma
 Hartree-Fock type      HFTyp           .... RHF
 Total Charge           Charge          ....   -1
 Multiplicity           Mult            ....    1
 Number of Electrons    NEL             .... 1060
 Basis Dimension        Dim             .... 4288
 Nuclear Repulsion      ENuc            ....  42461.5434684344 Eh

Convergence Acceleration:
 AO-DIIS                CNVDIIS         .... on
   Start iteration      DIISMaxIt       ....    12
   Startup error        DIISStart       ....  0.200000
   # of expansion vecs  DIISMaxEq       ....     5
   Bias factor          DIISBfac        ....   1.050
   Max. coefficient     DIISMaxC        ....  10.000
 MO-DIIS                CNVKDIIS        .... off
 Trust-Rad. Augm. Hess. CNVTRAH         .... auto
   Auto Start mean grad. ratio tolernc. ....  1.125000
   Auto Start start iteration           ....    50
   Auto Start num. interpolation iter.  ....    10
   Max. Number of Micro iterations      ....    24
   Max. Number of Macro iterations      .... Maxiter - #DIIS iter
   Number of Davidson start vectors     ....     2
   Converg. threshold    (grad. norm)   ....   1.000e-05
   Grad. Scal. Fac. for Micro threshold ....   0.100
   Minimum threshold for Micro iter.    ....   1.000e-02
   NR start threshold (gradient norm)   ....   1.000e-04
   Initial trust radius                 ....   0.400
   Minimum AH scaling param. (alpha)    ....   1.000
   Maximum AH scaling param. (alpha)    .... 1000.000
   Quad. conv. algorithm                .... NR
   White noise on init. David. guess    .... on
   Maximum white noise                  ....   0.010
   Pseudo random numbers                .... off
   Inactive MOs                         .... canonical
   Orbital update algorithm             .... Taylor
   Preconditioner                       .... Diag
   Full preconditioner red. dimension   ....   250
 SOSCF                 CNVSOSCF           .... on
   Start iteration     SOSCFMaxIt         ....   150
   Startup grad/error  SOSCFStart         ....  0.003300
   Hessian update      SOSCFHessUp        .... L-BFGS
   Autom. constraints  SOSCFAutoConstrain .... off
 Level Shifting         CNVShift        .... on
   Level shift para.    LevelShift      ....    0.2500
   Turn off err/grad.   ShiftErr        ....    0.0010
 Zerner damping         CNVZerner       .... off
 Static damping         CNVDamp         .... on
   Fraction old density DampFac         ....    0.7000
   Max. Damping (<1)    DampMax         ....    0.9800
   Min. Damping (>=0)   DampMin         ....    0.0000
   Turn off err/grad.   DampErr         ....    0.1000

SCF Procedure:
 Maximum # iterations   MaxIter         ....   125
 SCF integral mode      SCFMode         .... Direct
   Integral package                     .... SHARK and LIBINT hybrid scheme
 Reset frequency        DirectResetFreq ....    20
 Integral Threshold     Thresh          ....  1.000e-12 Eh
 Primitive CutOff       TCut            ....  1.000e-13 Eh

Convergence Tolerance:
 Convergence Check Mode ConvCheckMode   .... Total+1el-Energy
 Convergence forced     ConvForced      .... 0
 Energy Change          TolE            ....  1.000e-08 Eh
 1-El. energy change                    ....  1.000e-05 Eh
 Orbital Gradient       TolG            ....  1.000e-05
 Orbital Rotation angle TolX            ....  1.000e-05
 DIIS Error             TolErr          ....  5.000e-07

------------------------------
INITIAL GUESS: MODEL POTENTIAL
------------------------------
Loading Hartree-Fock densities                     ... done
Calculating cut-offs                               ... done
Initializing the effective Hamiltonian             ... done
Setting up the integral package (SHARK)            ... done
Starting the Coulomb interaction                   ... done ( 304.0 sec)
Making the grid                                    ... done (  15.7 sec)
Mapping shells                                     ... done
Starting the XC term evaluation                    ... done (  58.3 sec)
  promolecular density results
     # of electrons  =   1058.949676738
     EX              =  -1187.610071231
     EC              =    -37.799340832
     EX+EC           =  -1225.409412064
Transforming the Hamiltonian                       ... done (   8.8 sec)
Diagonalizing the Hamiltonian                      ... done (  20.3 sec)
Back transforming the eigenvectors                 ... done (   4.7 sec)
Now organizing SCF variables                       ... done
                      ------------------
                      INITIAL GUESS DONE ( 413.4 sec)
                      ------------------
             **** ENERGY FILE WAS UPDATED (frame_7_ma.en.tmp) ****
Finished Guess after 417.2 sec
Maximum memory used throughout the entire GUESS-calculation: 1320.6 MB

-------------------------------------------------------------------------------------------
                                      ORCA LEAN-SCF
                              memory conserving SCF solver
-------------------------------------------------------------------------------------------

--------------------
CPCM SOLVATION MODEL
--------------------
CPCM parameters:
  Epsilon                                         ...      80.1510
  Refrac                                          ...       1.3328
  Rsolv                                           ...       1.3000
  Surface type                                    ... GAUSSIAN VDW
  Discretization scheme                           ... Constant charge density
    Threshold for H atoms                         ...       5.0000 (charges/Ang^2)
    Threshold for non-H atoms                     ...       5.0000 (charges/Ang^2)
  Epsilon function type                           ...         CPCM
Solvent:                                          ... WATER
Radii:
  Scheme                                          ... Element-dependent radii
  Radius for Si used is    4.7621 Bohr (=   2.5200 Ang.)
  Radius for O  used is    3.4469 Bohr (=   1.8240 Ang.)
  Radius for H  used is    2.4944 Bohr (=   1.3200 Ang.)
  Radius for N  used is    3.5149 Bohr (=   1.8600 Ang.)
  Radius for C  used is    3.8550 Bohr (=   2.0400 Ang.)
  Radius for P  used is    4.0818 Bohr (=   2.1600 Ang.)
Calculating surface                               ...        done! (  0.1s)
Cavity surface points                             ...        13424
Cavity Volume                                     ...   12162.6262
Cavity Surface-area                               ...    5040.9671
Calculating surface distance matrix               ...        done! (  3.7s)
Performing Cholesky decomposition & store         ...        done! ( 22.8s)
Overall time for CPCM initialization              ...                26.6s


Warning (ORCA_SCF): Not enough memory available!
                    Memory available for SCF calculation:       1500.0 MB
                    Memory needed (estimated)           :       2979.5 MB


----------------------------------------D-I-I-S--------------------------------------------
Iteration    Energy (Eh)           Delta-E    RMSDP     MaxDP     DIISErr   Damp  Time(sec)
-------------------------------------------------------------------------------------------
               ***  Starting incremental Fock matrix formation  ***
    1    -13330.6224218801726238     0.00e+00  8.46e-03  1.12e+01  3.72e-01  0.700 6346.1
    2    -13333.5604378829521011    -2.94e+00  6.22e-03  8.72e+00  1.53e-01  0.700 3342.7
                               ***Turning on AO-DIIS***
    3    -13334.5930778893380193    -1.03e+00  3.04e-03  3.98e+00  4.33e-02  0.700 3212.9
    4    -13335.2297621902762330    -6.37e-01  7.13e-03  8.93e+00  2.06e-02  0.000 3012.0
    5    -13336.6729482242590166    -1.44e+00  5.93e-04  5.42e-01  1.00e-02  0.000 3181.2
    6    -13336.6778255806493689    -4.88e-03  1.72e-04  7.82e-02  4.56e-03  0.000 2758.8
                              *** Initializing SOSCF ***
---------------------------------------S-O-S-C-F--------------------------------------
Iteration    Energy (Eh)           Delta-E    RMSDP     MaxDP     MaxGrad    Time(sec)
--------------------------------------------------------------------------------------
    7    -13336.6781776086572791    -3.52e-04  9.27e-05  8.27e-02  2.92e-03  2499.9
               *** Restarting incremental Fock matrix formation ***
    8    -13336.6785392343590502    -3.62e-04  4.13e-03  4.93e+00  1.53e-04  6398.2
    9    -13336.6785459749444271    -6.74e-06  1.39e-03  1.71e+00  3.62e-04  4952.8
   10    -13336.6785509548717528    -4.98e-06  1.52e-03  1.80e+00  2.04e-04  4403.7
   11    -13336.6785532719732146    -2.32e-06  1.15e-04  1.45e-01  5.54e-05  4431.3
   12    -13336.6785543958394555    -1.12e-06  2.79e-04  2.92e-01  1.15e-05  3405.0
   13    -13336.6785539567499654     4.39e-07  1.39e-04  1.67e-01  1.32e-05  3725.2
   14    -13336.6785536454772227     3.11e-07  1.38e-04  1.63e-01  6.71e-06  2828.4
   15    -13336.6785550008207792    -1.36e-06  1.21e-04  1.18e-01  2.37e-06  3224.5
                  *** Gradient check signals convergence ***

               *****************************************************
               *                     SUCCESS                       *
               *           SCF CONVERGED AFTER  15 CYCLES          *
               *****************************************************

Recomputing exchange energy using gridx3       ...