Running on  hostname
Mon Nov  3 09:23:46 AM CET 2025

                                 *****************
                                 * O   R   C   A *
                                 *****************

                                            #,                                       
                                            ###                                      
                                            ####                                     
                                            #####                                    
                                            ######                                   
                                           ########,                                 
                                     ,,################,,,,,                         
                               ,,#################################,,                 
                          ,,##########################################,,             
                       ,#########################################, ''#####,          
                    ,#############################################,,   '####,        
                  ,##################################################,,,,####,       
                ,###########''''           ''''###############################       
              ,#####''   ,,,,##########,,,,          '''####'''          '####       
            ,##' ,,,,###########################,,,                        '##       
           ' ,,###''''                  '''############,,,                           
         ,,##''                                '''############,,,,        ,,,,,,###''
      ,#''                                            '''#######################'''  
     '                                                          ''''####''''         
             ,#######,   #######,   ,#######,      ##                                
            ,#'     '#,  ##    ##  ,#'     '#,    #''#        ,####,    ,#,          
            ##       ##  ##   ,#'  ##            #'  '#       #'       ,# #          
            ##       ##  #######   ##           ,######,      #####,      #          
            '#,     ,#'  ##    ##  '#,     ,#' ,#      #,     #,   #      #          
             '#######'   ##     ##  '#######'  #'      '#     '####' #    #          



                #########################################################
                #                        -***-                          #
                #          Department of theory and spectroscopy        #
                #                                                       #
                #                      Frank Neese                      #
                #                                                       #
                #     Directorship, Architecture, Infrastructure        #
                #                    SHARK, DRIVERS                     #
                #        Core code/Algorithms in most modules           #
                #                                                       #
                #        Max Planck Institute fuer Kohlenforschung      #
                #                Kaiser Wilhelm Platz 1                 #
                #                 D-45470 Muelheim/Ruhr                 #
                #                      Germany                          #
                #                                                       #
                #                  All rights reserved                  #
                #                        -***-                          #
                #########################################################


                         Program Version 6.1.0  -  RELEASE   -
                                (GIT: $679e74b$)
                          ($2025-06-10 18:02:51 +0200$)


 With contributions from (in alphabetic order):
[Max-Planck-Institut fuer Kohlenforschung]                               
  Daniel Aravena         : Magnetic Suceptibility                        
  Michael Atanasov       : Ab Initio Ligand Field Theory (pilot matlab implementation)
  Alexander A. Auer      : GIAO ZORA, VPT2 properties, NMR spectrum      
  Ute Becker             : All parallelization in ORCA, NUMFREQ, NUMCALC 
  Giovanni Bistoni       : ED, misc. LED, open-shell LED, HFLD           
  Dmytro Bykov           : pre 5.0 version of the SCF Hessian            
  Marcos Casanova-Páez   : Triplet and SCS-CIS(D). UHF-(DLPNO)-IP/EA/STEOM-CCSD. UHF-CVS-IP/STEOM-CCSD   
  Vijay G. Chilkuri      : MRCI spin determinant printing, contributions to CSF-ICE 
  Pauline Colinet        : FMM embedding                                 
  Dipayan Datta          : RHF DLPNO-CCSD density                        
  Achintya Kumar Dutta   : EOM-CC, STEOM-CC                              
  Nicolas Foglia         : Exact transition moments, OPA infrastructure, MCD improvements    
  Dmitry Ganyushin       : Spin-Orbit,Spin-Spin,Magnetic field MRCI      
  Miquel Garcia-Rates    : C-PCM and meta-GGA Hessian, CCSD/C-PCM, Gaussian charge scheme 
  Tiago L. C. Gouveia    : GS-ROHF, GS-ROCIS                             
  Yang Guo               : DLPNO-NEVPT2, F12-NEVPT2, CIM, IAO-localization        
  Andreas Hansen         : Spin unrestricted coupled pair/coupled cluster methods 
  Ingolf Harden          : AUTO-CI MPn and infrastructure                
  Benjamin Helmich-Paris : MC-RPA, TRAH-(SCF,CASSCF), AVAS, COSX integrals, SCF dyn. polar., MC-PDFT, srDFT 
  Lee Huntington         : MR-EOM, pCC                                   
  Robert Izsak           : Overlap fitted RIJCOSX, COSX-SCS-MP3, EOM     
  Riya Kayal             : Wick's Theorem for AUTO-CI, AUTO-CI UHF-CCSDT 
  Emily Kempfer          : AUTO-CI RHF CISDT and CCSDT, approximate NEVPT4
  Christian Kollmar      : KDIIS, OOCD, Brueckner-CCSD(T), CCSD density, CASPT2, CASPT2-K, improved NEVPT2 
  Axel Koslowski         : Symmetry handling                             
  Simone Kossmann        : meta-GGA functionals, TD-DFT gradient, OOMP2, (MP2 Hessian; deprecated post 5.0) 
  Lucas Lang             : DCDCAS, Hyperfine gauge corrections, ICE-SOC+SSC
  Marvin Lechner         : AUTO-CI (C++ implementation), FIC-MRCC        
  Spencer Leger          : CASSCF response                               
  Dagmar Lenk            : GEPOL surface, SMD, ORCA-2-JSON               
  Dimitrios Liakos       : Extrapolation schemes; Compound Job, Property file
  Dimitrios Manganas     : Further ROCIS development; embedding schemes. LFT, Crystal Embedding 
  Dimitrios Pantazis     : SARC Basis sets                               
  Anastasios Papadopoulos: AUTO-CI, single reference methods and gradients 
  Taras Petrenko         : pre 6.0 DFT Hessian and TD-DFT gradient,  ECA, NRVS 
  Petra Pikulova         : Analytic Raman intensities                    
  Peter Pinski           : DLPNO-MP2, DLPNO-MP2 Gradient                 
  Shashank Vittal Rao    : ES-AILFT, MagRelax                            
  Christoph Reimann      : Effective Core Potentials                     
  Marius Retegan         : Local ZFS, SOC                                
  Christoph Riplinger    : Optimizer, TS searches, QM/MM, DLPNO-CCSD(T), (RO)-DLPNO pert. Triples 
  Michael Roemelt        : Original ROCIS implementation, recursive CI coupling coefficients
  Masaaki Saitow         : Open-shell DLPNO-CCSD energy and density      
  Barbara Sandhoefer     : DKH picture change effects                    
  Yorick L. A. Schmerwitz: GMF and freeze-and-release deltaSCF, NEB S-IDPP initial path                    
  Kantharuban Sivalingam : CASSCF convergence/infrastructure, NEVPT2, NEVPT3, NEVPT4(SD), FIC-MRCI and CEPA variants
  Bernardo de Souza      : ESD, SOC TD-DFT                               
  Georgi L. Stoychev     : AutoAux, RI-MP2 NMR, DLPNO-MP2 response, X2C  
  Van Anh Tran           : RI-MP2 g-tensors                              
  Willem Van den Heuvel  : Paramagnetic NMR                              
  Zikuan Wang            : NOTCH, Electric field optimization            
  Frank Wennmohs         : Technical directorship and infrastructure     
  Hang Xu                : AUTO-CI-Response properties                   
                                                                         
[FACCTs GmbH]                                                            
  Markus Bursch, Nicolas Foglia, Miquel Garcia-Rates, Ingolf Harden, Hagen Neugebauer, Anastasios Papadopoulos, 
  Christoph Riplinger, Bernardo de Souza, Georgi L. Stoychev                                                    
                                                                 
  APM, various basis sets, CI-OPT, improved COSX, DLPNO-Multilevel,           
  DOCKER, DRACO, updates on ESD, Fragmentator, GOAT, IRC, LR-CPCM, L-BFGS, MBIS, meta-GGA TD-DFT gradient, ML-optimized integration grids, 
  MM, NACMEs, nearIR, NEB, NEB-TS, NL-DFT gradient (VV10), 2- and 3-layer-ONIOM, interface openCOSMO-RS, QMMM,   
  Crystal-QMMM, RESP, rigid body optimization, SF, symmetry and pop. for TD-DFT, various functionals, SOLVATOR                                   
                                                                         
[Other institutions]                                                     
  V. Asgeirsson          : NEB                                           
  Christoph Bannwarth    : sTDA-DFT, sTD-DFT, PBEh-3c, B97-3c, D3        
  Giovanni Bistoni       : ETS/NOCV, ADLD/ADEX, COVALED                  
  Martin Brehm           : Molecular dynamics                            
  Ronald Cardenas        : ETS/NOCV                                      
  Martina Colucci        : COVALED                                       
  Sebastian Ehlert       : rSCAN, r2SCAN, r2SCAN-3c, D4, dhf basis sets  
  Marvin Friede          : D4 for Fr, Ra, Ac-Lr                          
  Lars Goerigk           : TD-DFT with DH, B97 family of functionals     
  Stefan Grimme          : VdW corrections, initial TS optimization, DFT functionals, gCP, sTDA/sTD-DF 
  Waldemar Hujo          : DFT-NL                                        
  H. Jonsson             : NEB                                           
  Holger Kruse           : gCP                                           
  Marcel Mueller         : wB97X-3c, vDZP basis set                      
  Hagen Neugebauer       : wr2SCAN, Native XTB                           
  Gianluca Regni         : ADLD/ADEX                                     
  Tobias Risthaus        : pre 6.0 range-separated hybrid DFT and stability analysis
  Lukas Wittmann         : regularized MP2, r2SCAN double-hybrids, wr2SCAN        
                                                                         
We gratefully acknowledge several colleagues who have allowed us to      
interface, adapt or use parts of their codes:                            
  Ed Valeev, F. Pavosevic, A. Kumar             : LibInt (2-el integral package), F12 methods 
  Garnet Chan, S. Sharma, J. Yang, R. Olivares  : DMRG                   
  Ulf Ekstrom                                   : XCFun DFT Library      
  Mihaly Kallay                                 : mrcc  (arbitrary order and MRCC methods)
  Frank Weinhold                                : gennbo (NPA and NBO analysis)           
  Simon Mueller                                 : openCOSMO-RS                            
  Christopher J. Cramer and Donald G. Truhlar   : smd solvation model                     
  S Lehtola, MJT Oliveira, MAL Marques          : LibXC Library                           
  Liviu Ungur et al                             : ANISO software                          


 Your calculation uses the libint2 library for the computation of 2-el integrals
 For citations please refer to: http://libint.valeyev.net

 Your ORCA version has been built with support for libXC version: 7.0.0
 For citations please refer to: https://libxc.gitlab.io

 This ORCA versions uses:
   CBLAS   interface :  Fast vector & matrix operations
   LAPACKE interface :  Fast linear algebra routines
   SCALAPACK package :  Parallel linear algebra routines
   Shared memory     :  Shared parallel matrices
   BLAS/LAPACK       :  OpenBLAS 0.3.29  USE64BITINT DYNAMIC_ARCH NO_AFFINITY Haswell SINGLE_THREADED
        Core in use  :  Haswell
   Copyright (c) 2011-2014, The OpenBLAS Project


  ***********************************
  * Starting time: Mon Nov  3 09:23:49 2025
  * Host name:     node225.cluster
  * Process ID:    375039
  * Working dir.:  /data/scratch/54423632
  ***********************************

NOTE: MaxCore=2500 MB was set to SCF,MP2,MDCI,CIPSI,MRCI,RASCI and CIS
      => If you want to overwrite this, your respective input block should be placed after the MaxCore statement
Your calculation utilizes the atom-pairwise dispersion correction
with the Becke-Johnson damping scheme (D3BJ)


Warning: RI is on but no J-basis has been assigned. Assigning Def2/J (nothing to worry about!)
================================================================================

----- Orbital basis set information -----
Your calculation utilizes the basis: ma-def2-TZVP
   F. Weigend and R. Ahlrichs, Phys. Chem. Chem. Phys. 7, 3297 (2005).
   J. Zheng, X. Xu and D. G. Truhlar, Theor. Chem. Acc. 128, 295 (2011).

----- AuxJ basis set information -----
Your calculation utilizes the auxiliary basis: def2/J
   H-Rn: F. Weigend, Phys. Chem. Chem. Phys. 8, 1057 (2006).
   Fr-Lr: K. Eichkorn, F. Weigend, O. Treutler, R. Ahlrichs; Theor. Chem. Acc. 97, 119 (1997).

================================================================================
                                        WARNINGS
                       Please study these warnings very carefully!
================================================================================


WARNING: Geometry Optimization
  ===> : Switching off AutoStart
         For restart on a previous wavefunction, please use MOREAD

================================================================================
                                       INPUT FILE
================================================================================
NAME = frame011.inp
|  1> ! PBE0 D3BJ CPCM(water) Opt ma-def2-TZVP
|  2> 
|  3> %pal
|  4>   nprocs 12
|  5> end
|  6> 
|  7> %maxcore 2500
|  8> 
|  9> %scf
| 10>   # A safety mechanism for difficult convergence
| 11>   MaxIter 500  # Increase max iterations from default 125
| 12> end
| 13> 
| 14> %geom
| 15>   Constraints
| 16>     { C 4 C }
| 17>     { C 6 C }
| 18>     { C 15 C }
| 19>     { C 16 C }
| 20>     { C 17 C }
| 21>     { C 25 C }
| 22>     { C 28 C }
| 23>     { C 40 C }
| 24>     { C 41 C }
| 25>     { C 54 C }
| 26>     { C 57 C }
| 27>     { C 59 C }
| 28>     { C 69 C }
| 29>     { C 70 C }
| 30>     { C 73 C }
| 31>     { C 81 C }
| 32>     { C 85 C }
| 33>     { C 88 C }
| 34>   end
| 35> end
| 36> 
| 37> * xyz -1 1
| 38> Si 0.82550255444501274837 16.90273321031438413797 8.02672835404591289432
| 39> Si 3.57859338660620363015 15.40405380218299669082 7.91524250705477427914
| 40> Si 3.61525346668749136825 12.32827187626008580423 7.79142758741326257876
| 41> O  -0.39399254727869958970 16.38822460926508739476 8.97049796289057432830
| 42> O  2.14699993294695534729 16.01900001585557120620 8.38100000430081770730
| 43> O  2.16833122912953690786 11.70013062140693449464 8.17358994455809195756
| 44> O  3.71000007323606340037 13.84500000780769646269 8.38399999273895346619
| 45> O  0.51413263864938585357 16.82449474358353924686 6.43064562635276004698
| 46> O  3.78242852265878148899 15.56381404202007878723 6.30078740411241255970
| 47> O  3.83835818578998733130 12.26151674699301175053 6.17638957679532119016
| 48> Si 0.79040521357024573490 20.03769999432422110885 8.11798346746302179611
| 49> Si 3.61646548611147888863 24.59144273991503837351 7.78977790406985270977
| 50> Si 3.57392347151451783560 21.51644695675740948104 7.91298143847818558072
| 51> O  -0.36656750974044527425 20.60916375758948504426 9.10618692030553589234
| 52> O  2.16894289291225739191 25.21986234384969449707 8.16918535788876809534
| 53> O  2.14699987889819698950 20.90100010784428974375 8.38099998483270880456
| 54> O  1.04500007336365730026 18.45999992865469607750 8.38400000849420656834
| 55> O  3.71000014590308690998 23.07499992248371967207 8.38400000118249089098
| 56> O  0.28796921092659921726 20.17942496588684164749 6.58029563328514566223
| 57> O  3.84322893297401080304 24.65740308548092940555 6.17523017796604634100
| 58> O  3.76807242997571290033 21.35886612774014281513 6.29712044905733492328
| 59> Si 6.22270347605318363549 10.74478962120858938079 7.89204932919606072517
| 60> Si 6.22770120115116299075 16.89731259469064994505 8.01236698069483210816
| 61> Si 8.87567165651831757600 15.40393493277368364147 8.07146741901787834195
| 62> Si 8.88270019013800471441 12.35331725509719191791 7.92738867140163527836
| 63> O  4.81099995461367768712 11.40399997407198640076 8.38100000586474536135
| 64> O  4.84026674427147440838 16.22821144109725111093 8.54553535516409645822
| 65> O  7.53252353927330897676 16.13444974776239249081 8.63606400830386000678
| 66> O  7.47600001134988811913 11.67100002533209135436 8.38099999658660443913
| 67> O  6.39553672180642607259 9.26420229010235019018 8.53484835355531856749
| 68> O  8.97115844703234799340 13.85656775434060250518 8.57903219647732839803
| 69> O  6.19358004031123243749 10.56500296527529769719 6.27778410204001957595
| 70> O  6.34068245836123178805 16.74021437020936176054 6.38952262822148409072
| 71> O  8.84554263722979072782 15.39082824563763018944 6.42808051305747518711
| 72> O  8.99617644515313408249 12.49448485780009932000 6.29922600285840950107
| 73> Si 6.21638832347179715043 20.01550524335052472225 8.00088211994865439181
| 74> Si 6.22275724017713027791 26.17797518323239458482 7.89639692309842722295
| 75> Si 8.88164518213332065955 24.57359627221104858563 7.91870134241014689280
| 76> Si 8.85075338254297605545 21.52825984227797206927 8.03684228093201014076
| 77> O  4.83212176883231858682 20.68555655317718589004 8.53863760887203326888
| 78> O  4.81099990561712065329 25.51600006562006228705 8.38100000604900507994
| 79> O  7.47600001918154433156 25.24899994988512474947 8.38100000629187924517
| 80> O  7.51705032223099411937 20.79206826899397597685 8.61378731989830725979
| 81> O  6.27926991155927183286 18.45840710498390890848 8.45642109691116772296
| 82> O  8.96178708228703513328 23.06765939266134068930 8.56086481920863739958
| 83> O  6.31668640651916035722 20.15996000815834321429 6.37582712521827765784
| 84> O  6.19404506950286659617 26.36676298141640373274 6.28308224265365211636
| 85> O  8.99771841324988130850 24.44641163803701999768 6.28994570874204672606
| 86> O  8.79833297083383492065 21.55854515017241013197 6.39502419938515664910
| 87> O  6.39500684088939053140 27.65560332795665487993 8.54611655787660318140
| 88> Si 11.54077773903803638689 10.90435189919196901087 7.70392439300710574202
| 89> Si 11.54475397863571295431 16.89738966656685903445 7.91695217918824667436
| 90> Si 14.20353627897647541545 15.39713032852157326147 7.87470928896706112710
| 91> Si 14.23582000628125499020 12.29374207395646934060 7.89821818316705659413
| 92> O  10.13999999347447733555 11.40399999091711435995 8.38099999996703282079
| 93> O  10.19474390468977098578 16.23030433753106649419 8.55061140437095623668
| 94> O  12.85059881512709978324 16.10098648866213366659 8.48098109023014679053
| 95> O  12.80500002132209225181 11.67099999688371170237 8.38100000040420667347
| 96> O  11.70002193809274260161 9.30021622860609475936 7.89283361226858115600
| 97> O  14.36799995141803698573 13.84500001438410876631 8.38399998463837548002
| 98> O  11.52647381226512734997 11.21103037737391616702 6.10107396490287445801
| 99> O  11.53153709744854182873 16.72019063955695017398 6.29171040406507575682
|100> O  14.13836306849407620234 15.44005716324117116756 6.24791031972172117293
|101> O  14.36592144749596222653 12.11520262031924843882 6.28747362263434972363
|102> Si 11.52107488360556786233 20.04305293595558268294 7.85872176060598359726
|103> Si 11.54104399641831513179 26.02008623167948186961 7.70790688988357075573
|104> Si 14.23698933710212344295 24.62924612879783126118 7.90140964249183230805
|105> Si 14.21263215510268729247 21.53527643716595818546 7.85646401826652862610
|106> O  10.17156467051982460248 20.69915961430104900387 8.49678379636023706212
|107> O  10.13999995350876304201 25.51600004499315943463 8.38100000790720400801
|108> O  12.80499979384474507071 25.24899961170484630202 8.38099993165719858723
|109> O  12.80499999383573594969 20.90099999549570597424 8.38100002876718797040
|110> O  11.64364410712055786234 18.47899260179086766698 8.30700778043944687568
|111> O  14.36800000285285605628 23.07499999974379889522 8.38400001982343745510
|112> O  11.49649712332348094890 20.16818414181458862799 6.23103186498099326229
|113> O  11.52979967826650309348 25.72254297031835079679 6.10357091885872016235
|114> O  14.36785318695391744370 24.80206538354001466473 6.29032778938276049274
|115> O  14.23459251131446734462 21.46715809536906505173 6.21933351759164843031
|116> O  11.70097777843672304243 27.62284067201338899622 7.90688337088849291234
|117> Si 16.94924853991799906794 16.87134190440408332279 8.04468243615608002983
|118> O  15.47124958710553421781 11.46932691319274155717 8.55583957840494413460
|119> O  15.46900003976886139867 16.28600001105416694713 8.38100000440221926112
|120> O  18.07446201145676667466 16.21289847721770271960 9.01232914006393670547
|121> O  17.32777016141818648975 16.54921092121915293660 6.49330995639574037881
|122> Si 16.79747638898606609814 19.93081092225607164892 7.73267174539293478119
|123> O  15.46900003407298740399 20.63400001369728187228 8.38100000037093728622
|124> O  15.47112709056276003139 25.45236982826051530537 8.56102280858080177950
|125> O  18.11634118956801842160 20.83520173588053836511 8.03021783198878225107
|126> O  17.03199996107034763781 18.45999999555034776222 8.38399999807159623799
|127> O  16.60876852576482320956 19.83038374546125481857 6.12139245002999210499
|128> H  -0.50423259884725624147 15.43969751411512447703 9.08178114757095045206
|129> H  1.69998150268603520630 12.07827983306544794573 8.92297353520250347003
|130> H  0.31527828001013880055 15.96291628480567226234 6.05244511954445130186
|131> H  3.06011690930638202701 15.36094418920538728912 5.69970908515043017672
|132> H  3.18226077274908192294 12.64156661658880054233 5.58570418806885093943
|133> H  -0.12746512776409701928 20.79216845727814089173 10.01911989998795959877
|134> H  1.69595558352782838085 24.83705368268651625385 8.91328417919831395011
|135> H  0.06870205895010172981 21.06154561970090099976 6.26602478717011734943
|136> H  3.18504441497218238055 24.28262459382402838060 5.58349175259257357595
|137> H  3.04237625139629841442 21.56618417120832376099 5.70151829945089616558
|138> H  6.86261732044500849526 9.19605253061066996167 9.37200294390988197790
|139> H  5.50488190529118437411 11.07966287526246951245 5.83436112706815102058
|140> H  5.53947202770464031119 16.40054319970465712686 5.95952170073800857608
|141> H  8.05967270162092930263 15.81862340955130719067 6.04527862732606280360
|142> H  8.86604803862305246298 13.39292817976318517026 5.95934373390515581548
|143> H  5.51369468059973666385 20.50209974598343265484 5.95097614217885784171
|144> H  5.50812286266576833782 25.85154711677879646459 5.83617094382230039429
|145> H  8.84698060167897182282 23.55488086441058825926 5.94014873924646735759
|146> H  8.01534686371377169678 21.12144571794703651335 6.01740514059446862660
|147> H  6.85640193680112020047 27.71938859615113415202 9.38677005575416067984
|148> H  12.07465572210290183364 8.98126917977282168692 8.71867792152311338327
|149> H  10.73932833022784549826 11.69412444812257589888 5.80207311861617380799
|150> H  10.72187985840071000609 16.34829361707873118803 5.91526737738642083286
|151> H  13.31446529060486128060 15.80088674574058948963 5.88887824026198103411
|152> H  13.52713006079355650968 11.98281384181043485171 5.82547799834065749280
|153> H  10.69115572945636571944 20.54020170980307824493 5.84772945333948612756
|154> H  10.74283607749423197220 25.24201418952052122791 5.79986199847969086107
|155> H  13.53075164934057994515 24.94716800606660456197 5.82892497359329908591
|156> H  13.39832301688197091494 21.21040223571711891282 5.80701731925425335135
|157> H  12.07260089926677970595 27.93684520862723985601 8.73599234126507795395
|158> H  15.82850340168505098859 11.79809416489116991045 9.38506512791688507491
|159> H  18.14928359255795342619 15.25438693185136251884 9.00788299557361504810
|160> H  16.62567003255417574792 16.64916104373377692127 5.84290708829084159959
|161> H  15.82415888771438616800 25.12896139064762124349 9.39417316438605887186
|162> H  18.51458376036416453303 20.76863316211910159836 8.90270021130515942787
|163> H  15.82968317668997570991 20.30123648279068859779 5.78901744230296255722
|164> P  7.82626526991476012540 19.32604459070026337031 11.85376656223299818294
|165> O  10.39722279723715381294 22.51119864014232163640 13.03549433828159465065
|166> O  13.36751040753824781859 23.51482809083670133532 12.15214546449557531105
|167> O  11.45241750753158349596 24.24162829064022517400 10.70928581036700322215
|168> O  8.44067337472029421974 20.77830667751810977961 12.15684738180119950357
|169> O  7.69551167895904875138 18.56486526857684182801 13.15189322546293837490
|170> O  8.87165072799351328570 18.55241673551712366930 10.90872717302701744302
|171> O  10.72788438499241436830 16.39089948104729188572 11.90329101840917047639
|172> O  6.49935949551926750445 19.48432186896763340656 11.15082202795377774862
|173> N  11.66238443381080891470 20.55010587561007540103 13.37307628399665304642
|174> N  10.42877892956717111872 18.72181292282473918931 13.67871800095293366439
|175> N  13.17763380163670916545 19.66185588477608803259 11.62767492162922167154
|176> N  12.62449768249487647154 17.41332873702818773154 11.07557172082627161558
|177> N  14.40333498786172938821 18.52133288431980062683 10.02612435577284522026
|178> C  12.50572062547754725870 22.43203558449287271515 11.90163369073378518692
|179> C  11.38306138444881909777 22.84206590993158059177 10.89775016725280032404
|180> C  11.72984583975181038795 22.01207288393481675826 13.17906919838060986194
|181> C  10.06817539829947349972 22.47556539003055320336 11.64779677093684284728
|182> C  9.48856104646635145627 21.09403839532027546966 11.29917273203169969520
|183> C  12.20251508470528456485 19.56649894460126404283 12.56411245073454452381
|184> C  10.59505933843042768672 19.96378217500278040575 14.03663645839860407705
|185> C  11.40755316724695589414 18.43928316643852838297 12.78660524694186406691
|186> C  11.54564277672255556695 17.30233994855110424282 11.92438836610213215295
|187> C  13.39850536688232551796 18.55505847810517394691 10.95550129100604408450
|188> H  13.14480244557724120114 21.61439143079322633412 11.54499764594299371367
|189> H  11.48205199604127457746 22.32705748376550047851 9.92930514829844312885
|190> H  12.17309117820193087312 22.47766938317459661789 14.06768469704826785005
|191> H  9.30821430089742740677 23.25372228592210888110 11.48918092472506913282
|192> H  10.25653387122488524597 20.31573132822389382568 11.41757952779439122537
|193> H  9.10846348842567543613 21.03537824276725132222 10.26966354455649010902
|194> H  12.86186069130538101035 24.34301935543962613906 12.00912406959726297373
|195> H  10.93234660133447988528 24.55388295508639373566 9.93131929025710746828
|196> H  9.87629388301428612351 20.51023352165469759711 14.63308193987367999966
|197> H  12.70425985451292127948 16.74276441253974923029 10.31489368587434896085
|198> H  14.65440805902625243107 17.69563641799375020014 9.49277617812457208402
|199> H  14.78086188130780342931 19.36163670132970082705 9.60482171819471375329
|200> H  9.29780096058275518089 17.76150131373849916372 11.29382962908026399873
|201> *
|202> 
|203>                          ****END OF INPUT****
================================================================================

                       *****************************
                       * Geometry Optimization Run *
                       *****************************

Geometry optimization settings:
Update method            Update   .... BFGS
Choice of coordinates    CoordSys .... (2022) Redundant Internals
Initial Hessian          InHess   .... Almloef's Model
Max. no of cycles        MaxIter  .... 489

Convergence Tolerances:
Energy Change            TolE     ....  5.0000e-06 Eh
Max. Gradient            TolMAXG  ....  3.0000e-04 Eh/bohr
RMS Gradient             TolRMSG  ....  1.0000e-04 Eh/bohr
Max. Displacement        TolMAXD  ....  4.0000e-03 bohr
RMS Displacement         TolRMSD  ....  2.0000e-03 bohr
Strict Convergence                .... False

------------------------------------------------------------------------------
                        ORCA OPTIMIZATION COORDINATE SETUP
------------------------------------------------------------------------------

The optimization will be done in redundant internal coordinates (2022)
Making redundant internal coordinates   ...  (2022 redundants) done
Evaluating the initial hessian          ...  (Almloef) done
Evaluating the coordinates              ...  done
Calculating the B-matrix                .... done
Calculating the G-matrix                .... done
Will constrain atom 4 coordinate 1 
Will constrain atom 4 coordinate 2 
Will constrain atom 4 coordinate 3 
Will constrain atom 6 coordinate 1 
Will constrain atom 6 coordinate 2 
Will constrain atom 6 coordinate 3 
Will constrain atom 15 coordinate 1 
Will constrain atom 15 coordinate 2 
Will constrain atom 15 coordinate 3 
Will constrain atom 16 coordinate 1 
Will constrain atom 16 coordinate 2 
Will constrain atom 16 coordinate 3 
Will constrain atom 17 coordinate 1 
Will constrain atom 17 coordinate 2 
Will constrain atom 17 coordinate 3 
Will constrain atom 25 coordinate 1 
Will constrain atom 25 coordinate 2 
Will constrain atom 25 coordinate 3 
Will constrain atom 28 coordinate 1 
Will constrain atom 28 coordinate 2 
Will constrain atom 28 coordinate 3 
Will constrain atom 40 coordinate 1 
Will constrain atom 40 coordinate 2 
Will constrain atom 40 coordinate 3 
Will constrain atom 41 coordinate 1 
Will constrain atom 41 coordinate 2 
Will constrain atom 41 coordinate 3 
Will constrain atom 54 coordinate 1 
Will constrain atom 54 coordinate 2 
Will constrain atom 54 coordinate 3 
Will constrain atom 57 coordinate 1 
Will constrain atom 57 coordinate 2 
Will constrain atom 57 coordinate 3 
Will constrain atom 59 coordinate 1 
Will constrain atom 59 coordinate 2 
Will constrain atom 59 coordinate 3 
Will constrain atom 69 coordinate 1 
Will constrain atom 69 coordinate 2 
Will constrain atom 69 coordinate 3 
Will constrain atom 70 coordinate 1 
Will constrain atom 70 coordinate 2 
Will constrain atom 70 coordinate 3 
Will constrain atom 73 coordinate 1 
Will constrain atom 73 coordinate 2 
Will constrain atom 73 coordinate 3 
Will constrain atom 81 coordinate 1 
Will constrain atom 81 coordinate 2 
Will constrain atom 81 coordinate 3 
Will constrain atom 85 coordinate 1 
Will constrain atom 85 coordinate 2 
Will constrain atom 85 coordinate 3 
Will constrain atom 88 coordinate 1 
Will constrain atom 88 coordinate 2 
Will constrain atom 88 coordinate 3 
The number of degrees of freedom        ....  937
Storing new coordinates                 .... done

    -----------------------------------------------------------------
                    Redundant Internal Coordinates


    -----------------------------------------------------------------
         Definition                    Initial Value    Approx d2E/dq
    -----------------------------------------------------------------
      1. B(O   3,Si  0)                  1.6256         1.023667   
      2. B(O   4,Si  1)                  1.6262         1.021403   
      3. B(O   4,Si  0)                  1.6288         1.011880   
      4. B(O   5,Si  2)                  1.6230         1.033431   
      5. B(O   6,Si  2)                  1.6311         1.003098   
      6. B(O   6,Si  1)                  1.6333         0.995152   
      7. B(O   7,Si  0)                  1.6281         1.014503   
      8. B(O   8,Si  1)                  1.6351         0.988589   
      9. B(O   9,Si  2)                  1.6317         1.000846   
     10. B(O  13,Si 10)                  1.6253         1.024692   
     11. B(O  14,Si 11)                  1.6230         1.033444   
     12. B(O  15,Si 10)                  1.6294         1.009640   
     13. B(O  15,Si 12)                  1.6229         1.033743   
     14. B(O  16,Si  0)                  1.6127         1.073239   
     15. B(O  16,Si 10)                  1.6201         1.044580   
     16. B(O  17,Si 12)                  1.6338         0.993126   
     17. B(O  17,Si 11)                  1.6314         1.002122   
     18. B(O  18,Si 10)                  1.6239         1.030141   
     19. B(O  19,Si 11)                  1.6317         1.000894   
     20. B(O  20,Si 12)                  1.6351         0.988594   
     21. B(Si 23,Si 22)                  3.0406         0.027455   
     22. B(O  25,Si  2)                  1.6222         1.036371   
     23. B(O  25,Si 21)                  1.6330         0.996398   
     24. B(O  26,Si  1)                  1.6335         0.994398   
     25. B(O  26,Si 22)                  1.6300         1.007224   
     26. B(O  27,Si 22)                  1.6351         0.988609   
     27. B(O  27,Si 23)                  1.6299         1.007759   
     28. B(O  28,Si 21)                  1.6333         0.995107   
     29. B(O  28,Si 24)                  1.6279         1.014992   
     30. B(O  29,Si 21)                  1.6233         1.032254   
     31. B(O  30,Si 23)                  1.6313         1.002531   
     32. B(O  30,Si 24)                  1.6408         0.968086   
     33. B(O  31,Si 21)                  1.6245         1.027800   
     34. B(O  32,Si 22)                  1.6343         0.991335   
     35. B(O  33,Si 23)                  1.6437         0.957775   
     36. B(O  34,Si 24)                  1.6382         0.977357   
     37. B(Si 35,Si 12)                  3.0403         0.027492   
     38. B(Si 38,Si 35)                  3.0380         0.027718   
     39. B(O  39,Si 12)                  1.6324         0.998250   
     40. B(O  39,Si 35)                  1.6292         1.010175   
     41. B(O  40,Si 11)                  1.6221         1.036866   
     42. B(O  40,Si 36)                  1.6328         0.996878   
     43. B(O  41,Si 36)                  1.6335         0.994255   
     44. B(O  41,Si 37)                  1.6266         1.020043   
     45. B(O  42,Si 38)                  1.6290         1.011014   
     46. B(O  42,Si 35)                  1.6341         0.992053   
     47. B(O  43,Si 35)                  1.6236         1.031292   
     48. B(O  43,Si 22)                  1.6238         1.030319   
     49. B(O  44,Si 38)                  1.6299         1.007519   
     50. B(O  44,Si 37)                  1.6391         0.974159   
     51. B(O  45,Si 35)                  1.6345         0.990598   
     52. B(O  46,Si 36)                  1.6246         1.027538   
     53. B(O  47,Si 37)                  1.6378         0.978700   
     54. B(O  48,Si 38)                  1.6429         0.960528   
     55. B(O  49,Si 36)                  1.6233         1.032266   
     56. B(Si 50,Si 24)                  3.0356         0.027967   
     57. B(Si 53,Si 50)                  3.0383         0.027688   
     58. B(O  54,Si 24)                  1.6394         0.972930   
     59. B(O  54,Si 50)                  1.6341         0.992239   
     60. B(O  55,Si 23)                  1.6286         1.012372   
     61. B(O  55,Si 51)                  1.6337         0.993582   
     62. B(O  56,Si 51)                  1.6302         1.006455   
     63. B(O  56,Si 52)                  1.6412         0.966794   
     64. B(O  57,Si 50)                  1.6262         1.021530   
     65. B(O  57,Si 53)                  1.6334         0.994613   
     66. B(O  58,Si 50)                  1.6231         1.033311   
     67. B(O  58,Si  0)                 13.2692         0.010000   
     68. B(O  59,Si 52)                  1.6418         0.964509   
     69. B(O  59,Si 53)                  1.6309         1.003919   
     70. B(O  60,Si 50)                  1.6320         0.999938   
     71. B(O  61,Si 51)                  1.6349         0.989202   
     72. B(O  62,Si 52)                  1.6287         1.012203   
     73. B(O  63,Si 53)                  1.6258         1.022844   
     74. B(Si 65,Si 37)                  3.0347         0.028063   
     75. B(Si 66,Si 65)                  3.0397         0.027545   
     76. B(O  68,O  58)                 11.5168         0.010000   
     77. B(O  68,Si 38)                  1.6259         1.022618   
     78. B(O  68,Si 64)                  1.6306         1.005141   
     79. B(O  68,Si  0)                 10.0986         0.010000   
     80. B(O  69,Si 37)                  1.6387         0.975624   
     81. B(O  69,Si 65)                  1.6340         0.992435   
     82. B(O  70,Si 65)                  1.6264         1.020637   
     83. B(O  70,Si 66)                  1.6324         0.998465   
     84. B(O  71,Si 64)                  1.6301         1.006802   
     85. B(O  71,Si 67)                  1.6306         1.005032   
     86. B(O  72,Si 51)                  1.6320         0.999933   
     87. B(O  72,Si 64)                  1.6316         1.001197   
     88. B(O  73,Si 66)                  1.6327         0.997294   
     89. B(O  73,Si 67)                  1.6350         0.988983   
     90. B(O  74,Si 64)                  1.6327         0.997409   
     91. B(O  75,Si 65)                  1.6317         1.000876   
     92. B(O  76,Si 66)                  1.6256         1.023681   
     93. B(O  77,Si 67)                  1.6387         0.975605   
     94. B(O  78,Si 65)                  1.6230         1.033667   
     95. B(O  80,Si 53)                  1.6243         1.028511   
     96. B(O  81,Si 52)                  1.6272         1.017639   
     97. B(O  81,Si 79)                  1.6269         1.018728   
     98. B(O  82,Si 79)                  1.6236         1.031329   
     99. B(O  83,Si 79)                  1.6290         1.010790   
    100. B(O  85,Si 67)                  1.6328         0.997116   
    101. B(O  85,Si 84)                  1.6370         0.981823   
    102. B(O  86,Si 66)                  1.6235         1.031650   
    103. B(O  87,Si 84)                  1.6266         1.019890   
    104. B(O  88,Si 79)                  1.6266         1.019939   
    105. B(O  88,Si 84)                  1.6256         1.023753   
    106. B(O  89,Si 84)                  1.6254         1.024444   
    107. B(H  90,O   3)                  0.9614         0.517338   
    108. B(H  91,O   5)                  0.9612         0.517651   
    109. B(H  92,O   7)                  0.9617         0.516690   
    110. B(H  93,O   8)                  0.9613         0.517392   
    111. B(H  94,O   9)                  0.9612         0.517763   
    112. B(H  95,O  13)                  0.9613         0.517469   
    113. B(H  96,O  14)                  0.9612         0.517632   
    114. B(H  97,O  18)                  0.9618         0.516606   
    115. B(H  98,O  19)                  0.9612         0.517753   
    116. B(H  99,O  20)                  0.9614         0.517222   
    117. B(H 100,O  29)                  0.9611         0.517935   
    118. B(H 101,O   9)                  2.0715         0.010000   
    119. B(H 101,O  31)                  0.9674         0.506068   
    120. B(H 102,O   8)                  1.9758         0.012454   
    121. B(H 102,O  32)                  0.9707         0.499955   
    122. B(H 103,O  32)                  1.9806         0.012237   
    123. B(H 103,O  33)                  0.9732         0.495326   
    124. B(H 104,O  33)                  2.0523         0.010000   
    125. B(H 104,O  34)                  0.9694         0.502386   
    126. B(H 105,O  20)                  1.9751         0.012486   
    127. B(H 105,O  45)                  0.9707         0.499824   
    128. B(H 106,O  19)                  2.0767         0.010000   
    129. B(H 106,O  46)                  0.9673         0.506200   
    130. B(H 107,O  48)                  2.0481         0.010000   
    131. B(H 107,O  47)                  0.9695         0.502145   
    132. B(H 108,O  45)                  1.9845         0.012061   
    133. B(H 108,O  48)                  0.9730         0.495717   
    134. B(H 109,O  49)                  0.9611         0.517920   
    135. B(H 110,O  58)                  0.9613         0.517480   
    136. B(H 111,O  34)                  1.9815         0.012197   
    137. B(H 111,O  60)                  0.9708         0.499800   
    138. B(H 112,O  33)                  2.1680         0.010000   
    139. B(H 112,O  61)                  0.9672         0.506301   
    140. B(H 113,O  61)                  2.0460         0.010000   
    141. B(H 113,O  62)                  0.9685         0.504050   
    142. B(H 114,O  63)                  0.9667         0.507287   
    143. B(H 114,O  60)                  2.1620         0.010000   
    144. B(H 115,O  74)                  0.9664         0.507909   
    145. B(H 115,O  48)                  2.2180         0.010000   
    146. B(H 116,O  75)                  0.9708         0.499725   
    147. B(H 116,O  47)                  1.9795         0.012284   
    148. B(H 117,O  76)                  0.9668         0.507144   
    149. B(H 117,O  75)                  2.1634         0.010000   
    150. B(H 118,O  77)                  0.9671         0.506577   
    151. B(H 118,O  74)                  2.2097         0.010000   
    152. B(H 119,O  78)                  0.9613         0.517453   
    153. B(H 120,O  80)                  0.9609         0.518236   
    154. B(H 121,O  82)                  0.9614         0.517217   
    155. B(H 122,O  83)                  0.9623         0.515643   
    156. B(H 123,O  86)                  0.9609         0.518205   
    157. B(H 124,O  87)                  0.9614         0.517324   
    158. B(H 125,O  89)                  0.9691         0.502866   
    159. B(H 125,O  77)                  2.0221         0.010507   
    160. B(O 130,P 126)                  1.6057         0.851452   
    161. B(O 131,P 126)                  1.5105         1.208127   
    162. B(O 132,P 126)                  1.6076         0.845622   
    163. B(O 134,P 126)                  1.5099         1.210718   
    164. B(C 140,O 128)                  1.4064         0.526936   
    165. B(C 141,O 129)                  1.4139         0.512566   
    166. B(C 141,C 140)                  1.5609         0.333541   
    167. B(C 142,O 127)                  1.4303         0.482674   
    168. B(C 142,N 135)                  1.4763         0.407520   
    169. B(C 142,C 140)                  1.5525         0.343964   
    170. B(C 143,O 127)                  1.4266         0.489158   
    171. B(C 143,C 141)                  1.5575         0.337674   
    172. B(C 144,O 130)                  1.3905         0.558666   
    173. B(C 144,C 143)                  1.5382         0.362468   
    174. B(C 145,N 135)                  1.3833         0.573445   
    175. B(C 145,N 137)                  1.3553         0.635655   
    176. B(C 146,N 135)                  1.3868         0.566172   
    177. B(C 146,N 136)                  1.3032         0.769862   
    178. B(C 147,N 136)                  1.3541         0.638399   
    179. B(C 147,C 145)                  1.3972         0.608555   
    180. B(C 148,O 133)                  1.2247         1.027061   
    181. B(C 148,N 138)                  1.3772         0.586495   
    182. B(C 148,C 147)                  1.4336         0.532382   
    183. B(C 149,N 137)                  1.3136         0.740853   
    184. B(C 149,N 138)                  1.3846         0.570859   
    185. B(C 149,N 139)                  1.3691         0.604152   
    186. B(H 150,C 140)                  1.0973         0.350519   
    187. B(H 151,C 141)                  1.1013         0.345425   
    188. B(H 152,C 142)                  1.0968         0.351267   
    189. B(H 153,C 143)                  1.0992         0.348140   
    190. B(H 154,C 144)                  1.0998         0.347364   
    191. B(H 155,C 144)                  1.0990         0.348387   
    192. B(H 155,O  68)                  2.0944         0.010000   
    193. B(H 155,Si 38)                  2.3011         0.018300   
    194. B(H 155,O  42)                  2.3095         0.010000   
    195. B(H 155,P 126)                  2.6599         0.010000   
    196. B(H 155,O 130)                  2.0183         0.010655   
    197. B(H 156,O 128)                  0.9808         0.481643   
    198. B(H 156,O 129)                  1.9200         0.015288   
    199. B(H 157,O 129)                  0.9865         0.471701   
    200. B(H 157,O  69)                  1.9892         0.011856   
    201. B(H 158,C 146)                  1.0821         0.370679   
    202. B(H 159,N 138)                  1.0172         0.421448   
    203. B(H 159,O  56)                  1.9485         0.013770   
    204. B(H 160,N 139)                  1.0145         0.425566   
    205. B(H 160,O  81)                  1.9715         0.012654   
    206. B(H 161,N 139)                  1.0130         0.427993   
    207. B(H 161,O  85)                  1.8948         0.016772   
    208. B(H 162,O 132)                  0.9775         0.487628   
    209. B(H 162,O 133)                  2.0725         0.010000   
    210. B(H 162,P 126)                  2.2196         0.019084   
    211. A(O   4,Si  0,O   7)          110.0194         0.605426   
    212. A(O   3,Si  0,O   7)          114.2351         0.606782   
    213. A(O   7,Si  0,O  16)          106.8350         0.612353   
    214. A(O   3,Si  0,O   4)          108.0986         0.606478   
    215. A(O   3,Si  0,O  16)          106.2068         0.613420   
    216. A(O   4,Si  0,O  16)          111.4265         0.612047   
    217. A(O   8,Si  1,O  26)          103.6152         0.600389   
    218. A(O   4,Si  1,O  26)          112.2496         0.604183   
    219. A(O   4,Si  1,O   6)          110.4620         0.604271   
    220. A(O   6,Si  1,O   8)          111.5070         0.600477   
    221. A(O   6,Si  1,O  26)          107.9821         0.601156   
    222. A(O   4,Si  1,O   8)          110.8295         0.603500   
    223. A(O   5,Si  2,O   6)          109.0334         0.606569   
    224. A(O   9,Si  2,O  25)          103.6281         0.606639   
    225. A(O   5,Si  2,O   9)          109.8229         0.606306   
    226. A(O   6,Si  2,O   9)          112.9340         0.602829   
    227. A(O   5,Si  2,O  25)          110.5509         0.610406   
    228. A(O   6,Si  2,O  25)          110.7899         0.606902   
    229. A(Si  0,O   3,H  90)          117.7425         0.436170   
    230. A(Si  0,O   4,Si  1)          148.9965         0.606219   
    231. A(Si  2,O   5,H  91)          117.7555         0.436964   
    232. A(Si  1,O   6,Si  2)          141.1380         0.602166   
    233. A(Si  0,O   7,H  92)          117.9131         0.435366   
    234. A(Si  1,O   8,H  93)          120.2033         0.433449   
    235. A(Si  2,O   9,H  94)          119.9180         0.434467   
    236. A(O  13,Si 10,O  15)          107.9529         0.606336   
    237. A(O  15,Si 10,O  18)          111.3596         0.606957   
    238. A(O  13,Si 10,O  16)          110.7584         0.610335   
    239. A(O  15,Si 10,O  16)          111.0160         0.608592   
    240. A(O  16,Si 10,O  18)          106.8038         0.610961   
    241. A(O  13,Si 10,O  18)          108.9532         0.608695   
    242. A(O  14,Si 11,O  40)          110.5417         0.610464   
    243. A(O  14,Si 11,O  17)          109.0199         0.606457   
    244. A(O  17,Si 11,O  40)          110.7830         0.606844   
    245. A(O  17,Si 11,O  19)          112.9554         0.602722   
    246. A(O  19,Si 11,O  40)          103.6069         0.606700   
    247. A(O  14,Si 11,O  19)          109.8524         0.606313   
    248. A(Si 35,Si 12,O  39)           21.2104         0.336759   
    249. A(O  20,Si 12,O  39)          103.7794         0.600837   
    250. A(O  17,Si 12,O  39)          108.1102         0.601368   
    251. A(O  15,Si 12,Si 35)          124.6548         0.338726   
    252. A(O  15,Si 12,O  39)          111.9696         0.606037   
    253. A(O  20,Si 12,Si 35)           82.9804         0.336215   
    254. A(O  15,Si 12,O  17)          110.5995         0.605435   
    255. A(O  17,Si 12,O  20)          111.5270         0.600242   
    256. A(O  17,Si 12,Si 35)          112.9678         0.336471   
    257. A(O  15,Si 12,O  20)          110.6609         0.604901   
    258. A(Si 10,O  13,H  95)          117.8584         0.436269   
    259. A(Si 11,O  14,H  96)          117.7508         0.436962   
    260. A(Si 10,O  15,Si 12)          152.4254         0.607367   
    261. A(Si  0,O  16,Si 10)          151.9545         0.615826   
    262. A(Si 11,O  17,Si 12)          140.9793         0.601817   
    263. A(Si 10,O  18,H  97)          117.3877         0.436554   
    264. A(Si 11,O  19,H  98)          119.8838         0.434469   
    265. A(Si 12,O  20,H  99)          120.1191         0.433424   
    266. A(O  25,Si 21,O  29)          109.9787         0.605651   
    267. A(O  25,Si 21,O  28)          110.1701         0.601383   
    268. A(O  28,Si 21,O  29)          108.4801         0.605500   
    269. A(O  25,Si 21,O  31)          109.0697         0.605146   
    270. A(O  28,Si 21,O  31)          111.9620         0.604995   
    271. A(O  29,Si 21,O  31)          107.1244         0.609293   
    272. A(O  27,Si 22,O  43)          108.5950         0.604516   
    273. A(Si 23,Si 22,O  32)           84.9450         0.336294   
    274. A(Si 23,Si 22,O  43)          116.0523         0.338462   
    275. A(O  26,Si 22,O  27)          111.2826         0.601877   
    276. A(O  26,Si 22,O  43)          109.4030         0.606697   
    277. A(O  32,Si 22,O  43)          111.2077         0.604837   
    278. A(Si 23,Si 22,O  27)           21.3271         0.336140   
    279. A(O  27,Si 22,O  32)          106.1855         0.600035   
    280. A(O  26,Si 22,O  32)          110.1316         0.602197   
    281. A(Si 23,Si 22,O  26)          122.2284         0.337186   
    282. A(O  27,Si 23,O  33)          109.5607         0.598273   
    283. A(Si 22,Si 23,O  33)           88.1961         0.334374   
    284. A(Si 22,Si 23,O  27)           21.3988         0.337215   
    285. A(O  33,Si 23,O  55)          108.2422         0.598800   
    286. A(Si 22,Si 23,O  55)          117.5066         0.337472   
    287. A(O  30,Si 23,O  55)          110.0203         0.604097   
    288. A(O  30,Si 23,O  33)          107.7336         0.597674   
    289. A(O  27,Si 23,O  30)          111.4447         0.603565   
    290. A(Si 22,Si 23,O  30)          121.5269         0.336923   
    291. A(O  27,Si 23,O  55)          109.7622         0.604704   
    292. A(O  28,Si 24,O  30)          108.6581         0.600336   
    293. A(Si 50,Si 24,O  54)           21.9425         0.336281   
    294. A(O  28,Si 24,Si 50)          125.2465         0.338661   
    295. A(O  30,Si 24,O  34)          108.1818         0.595982   
    296. A(O  34,Si 24,Si 50)           84.6819         0.336535   
    297. A(O  28,Si 24,O  54)          110.0533         0.600914   
    298. A(O  30,Si 24,O  54)          112.2888         0.595461   
    299. A(O  34,Si 24,O  54)          105.7693         0.596555   
    300. A(O  28,Si 24,O  34)          111.8952         0.601440   
    301. A(O  30,Si 24,Si 50)          114.7929         0.336001   
    302. A(Si  2,O  25,Si 21)          139.3238         0.606117   
    303. A(Si  1,O  26,Si 22)          137.5889         0.602555   
    304. A(Si 22,O  27,Si 23)          137.2741         0.601939   
    305. A(Si 21,O  28,Si 24)          144.8182         0.603532   
    306. A(Si 21,O  29,H 100)          117.4739         0.436918   
    307. A(Si 23,O  30,Si 24)          137.9288         0.598908   
    308. A(Si 21,O  31,H 101)          114.1655         0.434759   
    309. A(Si 22,O  32,H 102)          114.6107         0.431001   
    310. A(Si 23,O  33,H 103)          113.8634         0.427632   
    311. A(Si 24,O  34,H 104)          114.7744         0.430278   
    312. A(Si 38,Si 35,O  42)           21.3710         0.336870   
    313. A(O  39,Si 35,O  42)          110.9176         0.602621   
    314. A(Si 12,Si 35,O  43)          121.0140         0.338592   
    315. A(O  39,Si 35,O  43)          109.5560         0.607150   
    316. A(Si 12,Si 35,Si 38)          120.5432         0.208889   
    317. A(Si 38,Si 35,O  39)          121.8747         0.337888   
    318. A(Si 12,Si 35,O  42)          117.9062         0.336410   
    319. A(Si 38,Si 35,O  43)          116.1450         0.339056   
    320. A(Si 12,Si 35,O  45)           88.9089         0.336328   
    321. A(Si 38,Si 35,O  45)           85.0983         0.336788   
    322. A(O  39,Si 35,O  45)          110.1173         0.602450   
    323. A(O  42,Si 35,O  45)          106.3825         0.600351   
    324. A(O  43,Si 35,O  45)          111.1818         0.604860   
    325. A(Si 12,Si 35,O  39)           21.2545         0.337426   
    326. A(O  42,Si 35,O  43)          108.6443         0.605032   
    327. A(O  40,Si 36,O  46)          109.0603         0.605172   
    328. A(O  41,Si 36,O  46)          111.9778         0.604865   
    329. A(O  40,Si 36,O  49)          109.9980         0.605709   
    330. A(O  41,Si 36,O  49)          108.5122         0.605401   
    331. A(O  46,Si 36,O  49)          107.0714         0.609264   
    332. A(O  40,Si 36,O  41)          110.1650         0.601340   
    333. A(O  44,Si 37,O  69)          112.3524         0.596496   
    334. A(O  41,Si 37,Si 65)          125.3897         0.339135   
    335. A(O  41,Si 37,O  44)          108.2040         0.601636   
    336. A(O  47,Si 37,Si 65)           84.5965         0.336803   
    337. A(O  41,Si 37,O  47)          112.0942         0.602176   
    338. A(O  41,Si 37,O  69)          110.1589         0.601810   
    339. A(O  44,Si 37,O  47)          108.3485         0.596858   
    340. A(Si 65,Si 37,O  69)           21.9559         0.336627   
    341. A(O  47,Si 37,O  69)          105.7112         0.597031   
    342. A(O  44,Si 37,Si 65)          114.9798         0.336543   
    343. A(O  42,Si 38,H 155)           69.5873         0.276473   
    344. A(O  48,Si 38,H 155)          167.7446         0.274312   
    345. A(Si 35,Si 38,O  68)          116.9914         0.338578   
    346. A(O  42,Si 38,O  68)          109.5397         0.606258   
    347. A(O  44,Si 38,O  68)          109.5924         0.605853   
    348. A(O  48,Si 38,O  68)          108.5429         0.600295   
    349. A(Si 35,Si 38,O  42)           21.4419         0.337935   
    350. A(Si 35,Si 38,H 155)           90.1114         0.179456   
    351. A(O  44,Si 38,H 155)           83.2640         0.276326   
    352. A(O  68,Si 38,H 155)           61.6596         0.276958   
    353. A(Si 35,Si 38,O  44)          122.2191         0.337740   
    354. A(O  42,Si 38,O  44)          111.6377         0.604519   
    355. A(Si 35,Si 38,O  48)           88.2627         0.335065   
    356. A(O  42,Si 38,O  48)          109.6419         0.598976   
    357. A(O  44,Si 38,O  48)          107.8210         0.598577   
    358. A(Si 12,O  39,Si 35)          137.5351         0.603345   
    359. A(Si 11,O  40,Si 36)          139.4296         0.606229   
    360. A(Si 36,O  41,Si 37)          144.5690         0.604011   
    361. A(Si 35,O  42,Si 38)          137.1871         0.602717   
    362. A(Si 38,O  42,H 155)           69.0323         0.201851   
    363. A(Si 35,O  42,H 155)          150.1621         0.201369   
    364. A(Si 22,O  43,Si 35)          147.5687         0.609471   
    365. A(Si 37,O  44,Si 38)          137.5988         0.600205   
    366. A(Si 35,O  45,H 105)          114.5510         0.430923   
    367. A(Si 36,O  46,H 106)          114.1705         0.434759   
    368. A(Si 37,O  47,H 107)          114.7839         0.430347   
    369. A(Si 38,O  48,H 108)          113.9056         0.427913   
    370. A(Si 36,O  49,H 109)          117.4805         0.436916   
    371. A(Si 53,Si 50,O  57)           21.2834         0.338457   
    372. A(O  54,Si 50,O  57)          110.4723         0.603944   
    373. A(Si 24,Si 50,O  58)          123.3058         0.339674   
    374. A(O  54,Si 50,O  58)          109.7600         0.605282   
    375. A(O  57,Si 50,O  58)          109.9507         0.608693   
    376. A(Si 24,Si 50,O  60)           88.5633         0.337818   
    377. A(Si 53,Si 50,O  60)           89.1204         0.337253   
    378. A(O  54,Si 50,O  60)          109.9972         0.601460   
    379. A(O  57,Si 50,O  60)          109.0958         0.604845   
    380. A(Si 53,Si 50,O  58)          110.9460         0.339105   
    381. A(O  58,Si 50,O  60)          107.5117         0.606186   
    382. A(Si 24,Si 50,Si 53)          123.6227         0.209325   
    383. A(Si 24,Si 50,O  54)           22.0180         0.337383   
    384. A(Si 24,Si 50,O  57)          115.1543         0.339024   
    385. A(Si 53,Si 50,O  54)          126.4449         0.336819   
    386. A(O  55,Si 51,O  56)          109.1625         0.602371   
    387. A(O  55,Si 51,O  61)          109.5500         0.600366   
    388. A(O  56,Si 51,O  61)          107.3052         0.601858   
    389. A(O  55,Si 51,O  72)          110.6762         0.601616   
    390. A(O  56,Si 51,O  72)          110.0117         0.603112   
    391. A(O  61,Si 51,O  72)          110.0669         0.601104   
    392. A(O  56,Si 52,O  59)          111.9277         0.594313   
    393. A(O  56,Si 52,O  62)          108.9473         0.599863   
    394. A(O  59,Si 52,O  62)          109.8020         0.599590   
    395. A(O  56,Si 52,O  81)          106.9713         0.600483   
    396. A(O  59,Si 52,O  81)          109.9986         0.600209   
    397. A(O  62,Si 52,O  81)          109.1174         0.605824   
    398. A(Si 50,Si 53,O  57)           21.1841         0.336953   
    399. A(Si 50,Si 53,O  59)          121.7284         0.337477   
    400. A(O  57,Si 53,O  59)          110.2174         0.602199   
    401. A(Si 50,Si 53,O  63)           87.5590         0.338529   
    402. A(O  57,Si 53,O  63)          108.7264         0.604372   
    403. A(O  59,Si 53,O  63)          113.1453         0.605460   
    404. A(Si 50,Si 53,O  80)          117.9334         0.338841   
    405. A(O  57,Si 53,O  80)          110.6756         0.605017   
    406. A(O  59,Si 53,O  80)          107.4891         0.606106   
    407. A(O  63,Si 53,O  80)          106.5293         0.608296   
    408. A(Si 24,O  54,Si 50)          136.0395         0.598294   
    409. A(Si 23,O  55,Si 51)          139.6719         0.603053   
    410. A(Si 51,O  56,Si 52)          137.9064         0.599205   
    411. A(Si 51,O  56,H 159)           96.0026         0.241205   
    412. A(Si 52,O  56,H 159)          123.4269         0.239826   
    413. A(Si 50,O  57,Si 53)          137.5326         0.604222   
    414. A(Si 50,O  58,H 110)          117.7845         0.436929   
    415. A(Si 52,O  59,Si 53)          143.0056         0.598641   
    416. A(Si 50,O  60,H 111)          113.7740         0.431647   
    417. A(Si 51,O  61,H 112)          115.8060         0.431812   
    418. A(Si 52,O  62,H 113)          114.4666         0.433253   
    419. A(Si 53,O  63,H 114)          114.7763         0.434569   
    420. A(O  68,Si 64,O  72)          109.8995         0.603107   
    421. A(O  68,Si 64,O  71)          108.3434         0.603757   
    422. A(O  71,Si 64,O  72)          110.9354         0.603299   
    423. A(O  68,Si 64,O  74)          110.2928         0.602666   
    424. A(O  71,Si 64,O  74)          106.9138         0.602858   
    425. A(O  72,Si 64,O  74)          110.3958         0.602209   
    426. A(O  69,Si 65,O  70)          110.4630         0.603865   
    427. A(Si 37,Si 65,Si 66)          123.6908         0.209277   
    428. A(Si 37,Si 65,O  69)           22.0216         0.337586   
    429. A(Si 66,Si 65,O  69)          126.3749         0.336539   
    430. A(Si 37,Si 65,O  70)          115.2337         0.339168   
    431. A(Si 66,Si 65,O  70)           21.1686         0.338114   
    432. A(Si 37,Si 65,O  75)           88.5869         0.338063   
    433. A(Si 66,Si 65,O  75)           89.1558         0.337014   
    434. A(O  69,Si 65,O  75)          110.0502         0.601592   
    435. A(O  70,Si 65,O  75)          109.0145         0.604853   
    436. A(Si 37,Si 65,O  78)          123.2686         0.339887   
    437. A(Si 66,Si 65,O  78)          110.8948         0.338830   
    438. A(O  69,Si 65,O  78)          109.7942         0.605345   
    439. A(O  70,Si 65,O  78)          109.9304         0.608630   
    440. A(O  75,Si 65,O  78)          107.5357         0.606336   
    441. A(Si 65,Si 66,O  70)           21.0874         0.336879   
    442. A(O  70,Si 66,O  73)          110.1797         0.601879   
    443. A(Si 65,Si 66,O  76)           87.6884         0.338282   
    444. A(O  70,Si 66,O  76)          108.7494         0.604919   
    445. A(O  73,Si 66,O  76)          112.8102         0.604782   
    446. A(Si 65,Si 66,O  86)          117.9098         0.338720   
    447. A(O  70,Si 66,O  86)          110.7931         0.605825   
    448. A(Si 65,Si 66,O  73)          121.7050         0.336813   
    449. A(O  73,Si 66,O  86)          107.5510         0.605688   
    450. A(O  76,Si 66,O  86)          106.7124         0.608751   
    451. A(O  71,Si 67,O  73)          110.1549         0.601668   
    452. A(O  71,Si 67,O  77)          108.4679         0.600090   
    453. A(O  73,Si 67,O  77)          111.1137         0.598232   
    454. A(O  71,Si 67,O  85)          110.2548         0.602619   
    455. A(O  73,Si 67,O  85)          110.0633         0.600751   
    456. A(O  77,Si 67,O  85)          106.7199         0.599176   
    457. A(Si 38,O  68,Si 64)          140.0698         0.605576   
    458. A(Si 38,O  68,H 155)           75.2408         0.224305   
    459. A(Si 64,O  68,H 155)          144.6812         0.223778   
    460. A(Si 37,O  69,Si 65)          136.0225         0.598636   
    461. A(Si 37,O  69,H 157)          104.3348         0.235102   
    462. A(Si 65,O  69,H 157)           97.3954         0.235668   
    463. A(Si 65,O  70,Si 66)          137.7440         0.604571   
    464. A(Si 64,O  71,Si 67)          141.4056         0.603744   
    465. A(Si 51,O  72,Si 64)          149.1782         0.602503   
    466. A(Si 66,O  73,Si 67)          142.5123         0.600772   
    467. A(Si 64,O  74,H 115)          115.9428         0.432700   
    468. A(Si 65,O  75,H 116)          113.7931         0.431708   
    469. A(Si 66,O  76,H 117)          114.7867         0.434611   
    470. A(Si 67,O  77,H 118)          115.1751         0.430782   
    471. A(Si 65,O  78,H 119)          117.8015         0.436952   
    472. A(O  81,Si 79,O  82)          111.1893         0.608144   
    473. A(O  81,Si 79,O  83)          109.7020         0.605786   
    474. A(O  82,Si 79,O  83)          109.0474         0.607226   
    475. A(O  81,Si 79,O  88)          110.7664         0.606841   
    476. A(O  82,Si 79,O  88)          103.6804         0.608284   
    477. A(O  83,Si 79,O  88)          112.3317         0.605925   
    478. A(Si 53,O  80,H 120)          117.2906         0.436677   
    479. A(Si 52,O  81,H 160)          104.1647         0.238696   
    480. A(Si 79,O  81,H 160)          103.6072         0.238732   
    481. A(Si 52,O  81,Si 79)          147.1182         0.606576   
    482. A(Si 79,O  82,H 121)          117.0969         0.436738   
    483. A(Si 79,O  83,H 122)          116.9751         0.434920   
    484. A(O  85,Si 84,O  87)          110.2869         0.602529   
    485. A(O  85,Si 84,O  88)          110.3078         0.602968   
    486. A(O  87,Si 84,O  88)          108.2276         0.607412   
    487. A(O  85,Si 84,O  89)          108.9617         0.603047   
    488. A(O  87,Si 84,O  89)          108.0485         0.607492   
    489. A(O  88,Si 84,O  89)          110.9799         0.607935   
    490. A(Si 67,O  85,H 161)          107.3804         0.247818   
    491. A(Si 84,O  85,H 161)          105.1937         0.247264   
    492. A(Si 67,O  85,Si 84)          137.2525         0.599910   
    493. A(Si 66,O  86,H 123)          117.4460         0.436913   
    494. A(Si 84,O  87,H 124)          117.6053         0.435878   
    495. A(Si 79,O  88,Si 84)          142.4446         0.607418   
    496. A(Si 84,O  89,H 125)          113.7853         0.434007   
    497. A(O 130,P 126,O 131)          109.0667         0.589713   
    498. A(O 130,P 126,O 132)          107.2998         0.550871   
    499. A(O 131,P 126,O 132)          108.6017         0.588935   
    500. A(O 130,P 126,O 134)          109.2275         0.589956   
    501. A(O 131,P 126,O 134)          112.1385         0.631240   
    502. A(O 132,P 126,O 134)          110.3786         0.589177   
    503. A(C 142,O 127,C 143)          107.6880         0.392959   
    504. A(C 140,O 128,H 156)          107.9521         0.355302   
    505. A(C 141,O 129,H 157)          113.1146         0.352394   
    506. A(P 126,O 130,C 144)          112.1668         0.476009   
    507. A(P 126,O 132,H 162)          116.1856         0.411950   
    508. A(C 142,N 135,C 145)          127.5482         0.392252   
    509. A(C 142,N 135,C 146)          121.1123         0.391378   
    510. A(C 145,N 135,C 146)          106.2419         0.415682   
    511. A(C 146,N 136,C 147)          106.7119         0.447823   
    512. A(C 145,N 137,C 149)          114.5346         0.444371   
    513. A(C 148,N 138,C 149)          123.9048         0.417963   
    514. A(C 148,N 138,H 159)          117.9829         0.353714   
    515. A(C 149,N 138,H 159)          115.7806         0.352100   
    516. A(C 149,N 139,H 160)          123.9539         0.356085   
    517. A(C 149,N 139,H 161)          122.3711         0.356429   
    518. A(H 160,N 139,H 161)          111.3619         0.301923   
    519. A(O 128,C 140,C 141)          110.6742         0.375673   
    520. A(O 128,C 140,C 142)          111.5891         0.377677   
    521. A(C 141,C 140,C 142)          103.9349         0.351451   
    522. A(O 128,C 140,H 150)          105.9438         0.339742   
    523. A(C 141,C 140,H 150)          113.9288         0.316963   
    524. A(C 142,C 140,H 150)          110.9111         0.318556   
    525. A(O 129,C 141,C 140)          108.0882         0.373885   
    526. A(O 129,C 141,C 143)          109.7873         0.374680   
    527. A(C 140,C 141,C 143)          103.6314         0.350356   
    528. A(O 129,C 141,H 151)          109.9539         0.337354   
    529. A(C 140,C 141,H 151)          112.2141         0.316208   
    530. A(C 143,C 141,H 151)          112.9115         0.316843   
    531. A(O 127,C 142,N 135)          108.4332         0.380652   
    532. A(O 127,C 142,C 140)          106.7771         0.372001   
    533. A(N 135,C 142,C 140)          113.5062         0.361364   
    534. A(O 127,C 142,H 152)          108.0435         0.334931   
    535. A(N 135,C 142,H 152)          109.4136         0.325688   
    536. A(C 140,C 142,H 152)          110.4790         0.318667   
    537. A(O 127,C 143,C 141)          105.5354         0.371673   
    538. A(O 127,C 143,C 144)          109.2567         0.376243   
    539. A(C 141,C 143,C 144)          114.8543         0.355323   
    540. A(O 127,C 143,H 153)          106.3885         0.335176   
    541. A(C 141,C 143,H 153)          110.3408         0.317247   
    542. A(C 144,C 143,H 153)          110.0352         0.320937   
    543. A(O 130,C 144,C 143)          110.3721         0.385013   
    544. A(O 130,C 144,H 154)          107.4062         0.342563   
    545. A(C 143,C 144,H 154)          110.3694         0.320820   
    546. A(O 130,C 144,H 155)          107.7617         0.342732   
    547. A(C 143,C 144,H 155)          112.9901         0.320974   
    548. A(H 154,C 144,H 155)          107.7333         0.287708   
    549. A(N 135,C 145,N 137)          129.4162         0.424354   
    550. A(N 135,C 145,C 147)          104.9732         0.423818   
    551. A(N 137,C 145,C 147)          125.1811         0.431715   
    552. A(N 135,C 146,N 136)          111.6981         0.438203   
    553. A(N 135,C 146,H 158)          124.1546         0.347098   
    554. A(N 136,C 146,H 158)          123.2231         0.365689   
    555. A(N 136,C 147,C 145)          110.3554         0.432050   
    556. A(N 136,C 147,C 148)          129.1484         0.421822   
    557. A(C 145,C 147,C 148)          119.2922         0.420967   
    558. A(O 133,C 148,N 138)          124.9192         0.464732   
    559. A(O 133,C 148,C 147)          122.4298         0.459639   
    560. A(N 138,C 148,C 147)          112.4719         0.415495   
    561. A(N 137,C 149,N 138)          123.8077         0.435827   
    562. A(N 137,C 149,N 139)          119.4387         0.440306   
    563. A(N 138,C 149,N 139)          116.6683         0.420179   
    564. A(O  68,H 155,C 144)          128.7547         0.172782   
    565. A(Si 38,H 155,C 144)          159.4380         0.205385   
    566. A(Si 38,H 155,O  68)           43.0996         0.138039   
    567. A(O  42,H 155,C 144)          156.2908         0.159060   
    568. A(O  42,H 155,O  68)           74.0934         0.118520   
    569. A(Si 38,H 155,O  42)           41.3804         0.130007   
    570. A(O  69,H 157,O 129)          167.8736         0.185787   
    571. A(O  56,H 159,N 138)          157.9554         0.186601   
    572. A(O  81,H 160,N 139)          168.7113         0.184964   
    573. A(O  85,H 161,N 139)          163.9502         0.191414   
    574. D(H  90,O   3,Si  0,O   4)    -43.3164         0.015519   
    575. D(H  90,O   3,Si  0,O   7)     79.5094         0.015519   
    576. D(Si  1,O   4,Si  0,O   3)    154.1794         0.015176   
    577. D(Si  0,O   4,Si  1,O   8)    -11.7017         0.013342   
    578. D(Si  1,O   4,Si  0,O   7)     28.8203         0.015176   
    579. D(Si  0,O   4,Si  1,O   6)   -135.8008         0.013342   
    580. D(H  91,O   5,Si  2,O   6)    -22.5473         0.013642   
    581. D(H  91,O   5,Si  2,O   9)   -146.7779         0.013642   
    582. D(Si  2,O   6,Si  1,O   8)    -20.6996         0.012702   
    583. D(Si  1,O   6,Si  2,O   5)   -100.8198         0.012894   
    584. D(Si  2,O   6,Si  1,O   4)    103.0091         0.012702   
    585. D(Si  1,O   6,Si  2,O   9)     21.5566         0.012894   
    586. D(H  92,O   7,Si  0,O   3)    -60.0311         0.015252   
    587. D(H  92,O   7,Si  0,O   4)     61.7450         0.015252   
    588. D(H  93,O   8,Si  1,O   4)    -43.9598         0.013560   
    589. D(H  93,O   8,Si  1,O   6)     79.5406         0.013560   
    590. D(H  94,O   9,Si  2,O   5)     53.9409         0.013881   
    591. D(H  94,O   9,Si  2,O   6)    -67.9927         0.013881   
    592. D(H  95,O  13,Si 10,O  15)    -43.9722         0.013424   
    593. D(H  95,O  13,Si 10,O  16)     77.7611         0.013424   
    594. D(H  96,O  14,Si 11,O  17)     22.0094         0.013643   
    595. D(H  96,O  14,Si 11,O  19)    146.2774         0.013643   
    596. D(Si 12,O  15,Si 10,O  16)     84.7665         0.013053   
    597. D(Si 12,O  15,Si 10,O  13)   -153.6596         0.013053   
    598. D(Si 10,O  15,Si 12,O  20)     11.4684         0.014766   
    599. D(Si 10,O  15,Si 12,O  17)    135.5714         0.014766   
    600. D(Si 10,O  16,Si  0,O   3)    -94.9971         0.017010   
    601. D(Si 10,O  16,Si  0,O   4)    147.5131         0.017010   
    602. D(Si  0,O  16,Si 10,O  13)     98.4369         0.013924   
    603. D(Si  0,O  16,Si 10,O  15)   -141.6463         0.013924   
    604. D(Si 12,O  17,Si 11,O  14)    100.5777         0.012870   
    605. D(Si 11,O  17,Si 12,O  15)   -103.1205         0.013678   
    606. D(Si 11,O  17,Si 12,O  20)     20.4844         0.013678   
    607. D(Si 12,O  17,Si 11,O  19)    -21.8415         0.012870   
    608. D(H  97,O  18,Si 10,O  13)     58.7616         0.013560   
    609. D(H  97,O  18,Si 10,O  15)    -60.2014         0.013560   
    610. D(H  98,O  19,Si 11,O  14)    -53.5032         0.013882   
    611. D(H  98,O  19,Si 11,O  17)     68.4492         0.013882   
    612. D(H  99,O  20,Si 12,O  15)     44.1958         0.014514   
    613. D(H  99,O  20,Si 12,O  17)    -79.3743         0.014514   
    614. D(O  27,Si 23,Si 22,O  26)    -64.2195         0.010000   
    615. D(O  27,Si 23,Si 22,O  32)   -174.8713         0.010000   
    616. D(O  30,Si 23,Si 22,O  26)      2.8344         0.010000   
    617. D(Si 21,O  25,Si  2,O   5)    133.3244         0.013716   
    618. D(Si 21,O  25,Si  2,O   6)   -105.6865         0.013716   
    619. D(Si  2,O  25,Si 21,O  28)     98.4402         0.012732   
    620. D(Si  2,O  25,Si 21,O  29)   -142.0315         0.012732   
    621. D(Si 22,O  26,Si  1,O   4)   -130.8400         0.012684   
    622. D(Si 22,O  26,Si  1,O   6)    107.1619         0.012684   
    623. D(Si  1,O  26,Si 22,Si 23)    -93.8782         0.014050   
    624. D(Si  1,O  26,Si 22,O  27)   -114.4549         0.014050   
    625. D(Si 22,O  27,Si 23,O  30)   -122.5066         0.014064   
    626. D(Si 22,O  27,Si 23,O  33)     -3.3725         0.014064   
    627. D(Si 23,O  27,Si 22,O  26)    125.1665         0.013560   
    628. D(Si 23,O  27,Si 22,O  32)      5.3202         0.013560   
    629. D(Si 24,O  28,Si 21,O  29)    105.0117         0.012701   
    630. D(Si 21,O  28,Si 24,O  34)     20.6397         0.014257   
    631. D(Si 21,O  28,Si 24,O  30)    140.0232         0.014257   
    632. D(Si 24,O  28,Si 21,O  25)   -134.5539         0.012701   
    633. D(H 100,O  29,Si 21,O  25)    -92.0846         0.013613   
    634. D(H 100,O  29,Si 21,O  28)     28.4685         0.013613   
    635. D(Si 24,O  30,Si 23,Si 22)     90.7167         0.013925   
    636. D(Si 24,O  30,Si 23,O  27)    111.8769         0.013925   
    637. D(Si 23,O  30,Si 24,O  28)   -108.0033         0.013033   
    638. D(Si 23,O  30,Si 24,O  34)     13.6770         0.013033   
    639. D(H 101,O  31,Si 21,O  25)     16.5114         0.013501   
    640. D(H 101,O  31,Si 21,O  28)   -105.6818         0.013501   
    641. D(H 102,O  32,Si 22,Si 23)    130.8425         0.014591   
    642. D(H 102,O  32,Si 22,O  26)      8.3092         0.014591   
    643. D(H 103,O  33,Si 23,Si 22)     -0.4888         0.014509   
    644. D(H 103,O  33,Si 23,O  27)      0.7417         0.014509   
    645. D(H 104,O  34,Si 24,O  28)    104.7086         0.014200   
    646. D(H 104,O  34,Si 24,O  30)    -14.9549         0.014200   
    647. D(O  39,Si 35,Si 12,O  15)    -58.3881         0.010000   
    648. D(Si 38,Si 35,Si 12,O  15)   -158.4306         0.010000   
    649. D(Si 38,Si 35,Si 12,O  17)    -19.1859         0.010000   
    650. D(O  42,Si 38,Si 35,Si 12)     89.0470         0.010000   
    651. D(O  42,Si 38,Si 35,O  39)     64.1907         0.010000   
    652. D(O  44,Si 38,Si 35,Si 12)     23.3985         0.010000   
    653. D(Si 35,O  39,Si 12,O  15)    130.9405         0.013812   
    654. D(Si 35,O  39,Si 12,O  17)   -106.9803         0.013812   
    655. D(Si 12,O  39,Si 35,Si 38)     92.9874         0.015127   
    656. D(Si 12,O  39,Si 35,O  42)    113.5482         0.015127   
    657. D(Si 36,O  40,Si 11,O  14)   -133.2105         0.013729   
    658. D(Si 36,O  40,Si 11,O  17)    105.8281         0.013729   
    659. D(Si 11,O  40,Si 36,O  41)    -98.2022         0.012744   
    660. D(Si 11,O  40,Si 36,O  46)     25.0751         0.012744   
    661. D(Si 37,O  41,Si 36,O  40)    134.6295         0.012681   
    662. D(Si 37,O  41,Si 36,O  46)     13.0719         0.012681   
    663. D(Si 36,O  41,Si 37,O  44)   -139.9690         0.014393   
    664. D(Si 36,O  41,Si 37,O  47)    -20.5533         0.014393   
    665. D(Si 38,O  42,Si 35,Si 12)   -102.9823         0.015521   
    666. D(Si 38,O  42,Si 35,O  39)   -125.0716         0.015521   
    667. D(H 155,O  42,Si 35,Si 12)    111.5708         0.015521   
    668. D(Si 35,O  42,Si 38,O  44)    123.9858         0.016099   
    669. D(Si 35,O  42,Si 38,O  48)      4.5683         0.016099   
    670. D(H 155,O  42,Si 38,Si 35)    162.4099         0.016099   
    671. D(Si 35,O  43,Si 22,Si 23)    106.8327         0.014672   
    672. D(Si 35,O  43,Si 22,O  26)   -109.8899         0.014672   
    673. D(Si 22,O  43,Si 35,Si 12)     90.5257         0.015743   
    674. D(Si 22,O  43,Si 35,Si 38)   -106.6024         0.015743   
    675. D(Si 38,O  44,Si 37,O  41)    107.6278         0.013188   
    676. D(Si 38,O  44,Si 37,O  47)    -14.1230         0.013188   
    677. D(Si 37,O  44,Si 38,Si 35)    -91.6822         0.015051   
    678. D(Si 37,O  44,Si 38,O  42)   -112.6769         0.015051   
    679. D(H 105,O  45,Si 35,Si 12)     -9.2117         0.015477   
    680. D(H 105,O  45,Si 35,Si 38)   -129.9941         0.015477   
    681. D(H 106,O  46,Si 36,O  40)    -16.7710         0.013495   
    682. D(H 106,O  46,Si 36,O  41)    105.4197         0.013495   
    683. D(H 107,O  47,Si 37,O  41)   -103.2181         0.014238   
    684. D(H 107,O  47,Si 37,O  44)     16.1129         0.014238   
    685. D(H 108,O  48,Si 38,Si 35)     -0.0547         0.015399   
    686. D(H 108,O  48,Si 38,O  42)     -1.7239         0.015399   
    687. D(H 109,O  49,Si 36,O  40)     91.6898         0.013613   
    688. D(H 109,O  49,Si 36,O  41)    -28.8886         0.013613   
    689. D(Si 53,Si 50,Si 24,O  28)   -155.9007         0.010000   
    690. D(Si 53,Si 50,Si 24,O  30)    -16.6203         0.010000   
    691. D(O  54,Si 50,Si 24,O  28)    -50.9168         0.010000   
    692. D(O  57,Si 53,Si 50,Si 24)     72.4982         0.010000   
    693. D(O  57,Si 53,Si 50,O  54)     45.7419         0.010000   
    694. D(O  59,Si 53,Si 50,Si 24)     10.5986         0.010000   
    695. D(Si 50,O  54,Si 24,O  28)    137.5580         0.013156   
    696. D(Si 50,O  54,Si 24,O  30)   -101.2645         0.013156   
    697. D(Si 24,O  54,Si 50,Si 53)     90.5697         0.014616   
    698. D(Si 24,O  54,Si 50,O  57)    106.6804         0.014616   
    699. D(Si 51,O  55,Si 23,Si 22)   -106.1284         0.014187   
    700. D(Si 51,O  55,Si 23,O  27)   -127.9508         0.014187   
    701. D(Si 23,O  55,Si 51,O  56)   -114.3907         0.012665   
    702. D(Si 23,O  55,Si 51,O  61)      2.8399         0.012665   
    703. D(Si 52,O  56,Si 51,O  55)    129.8569         0.014029   
    704. D(Si 52,O  56,Si 51,O  61)     11.2157         0.014029   
[...]
 69 O      8.4554     8.0000    -0.4554     3.0492     3.0492    -0.0000
 70 O      8.3689     8.0000    -0.3689     2.9528     2.9528    -0.0000
 71 O      8.5115     8.0000    -0.5115     3.6852     3.6852    -0.0000
 72 O      8.5948     8.0000    -0.5948     3.7254     3.7254    -0.0000
 73 O      8.4043     8.0000    -0.4043     3.0721     3.0721    -0.0000
 74 O      8.7111     8.0000    -0.7111     2.3234     2.3234    -0.0000
 75 O      8.6513     8.0000    -0.6513     2.1258     2.1258    -0.0000
 76 O      8.6369     8.0000    -0.6369     2.1880     2.1880    -0.0000
 77 O      8.7765     8.0000    -0.7765     2.3608     2.3608    -0.0000
 78 O      8.6845     8.0000    -0.6845     2.1500     2.1500    -0.0000
 79 Si    13.1571    14.0000     0.8429     4.5287     4.5287    -0.0000
 80 O      8.6766     8.0000    -0.6766     2.0893     2.0893    -0.0000
 81 O      8.1913     8.0000    -0.1913     2.9204     2.9204    -0.0000
 82 O      8.6594     8.0000    -0.6594     2.1283     2.1283    -0.0000
 83 O      8.6061     8.0000    -0.6061     2.1065     2.1065    -0.0000
 84 Si    13.0988    14.0000     0.9012     4.4496     4.4496    -0.0000
 85 O      8.4560     8.0000    -0.4560     2.9582     2.9582    -0.0000
 86 O      8.6636     8.0000    -0.6636     2.0732     2.0732    -0.0000
 87 O      8.6522     8.0000    -0.6522     2.1312     2.1312     0.0000
 88 O      8.1949     8.0000    -0.1949     2.5577     2.5577    -0.0000
 89 O      8.6574     8.0000    -0.6574     2.1464     2.1464     0.0000
 90 H      0.6128     1.0000     0.3872     0.8654     0.8654    -0.0000
 91 H      0.6099     1.0000     0.3901     0.8669     0.8669    -0.0000
 92 H      0.6060     1.0000     0.3940     0.8581     0.8581    -0.0000
 93 H      0.5933     1.0000     0.4067     0.8594     0.8594    -0.0000
 94 H      0.6066     1.0000     0.3934     0.8739     0.8739    -0.0000
 95 H      0.6119     1.0000     0.3881     0.8680     0.8680    -0.0000
 96 H      0.6096     1.0000     0.3904     0.8669     0.8669    -0.0000
 97 H      0.6114     1.0000     0.3886     0.8678     0.8678     0.0000
 98 H      0.6063     1.0000     0.3937     0.8737     0.8737     0.0000
 99 H      0.5917     1.0000     0.4083     0.8565     0.8565     0.0000
100 H      0.6109     1.0000     0.3891     0.8665     0.8665    -0.0000
101 H      0.6021     1.0000     0.3979     0.8555     0.8555    -0.0000
102 H      0.5737     1.0000     0.4263     0.8349     0.8349    -0.0000
103 H      0.5748     1.0000     0.4252     0.8413     0.8413    -0.0000
104 H      0.6014     1.0000     0.3986     0.8713     0.8713    -0.0000
105 H      0.5708     1.0000     0.4292     0.8316     0.8316    -0.0000
106 H      0.6022     1.0000     0.3978     0.8566     0.8566    -0.0000
107 H      0.5984     1.0000     0.4016     0.8710     0.8710     0.0000
108 H      0.5835     1.0000     0.4165     0.8609     0.8609    -0.0000
109 H      0.6100     1.0000     0.3900     0.8649     0.8649     0.0000
110 H      0.6123     1.0000     0.3877     0.8682     0.8682     0.0000
111 H      0.6082     1.0000     0.3918     0.8767     0.8767    -0.0000
112 H      0.5981     1.0000     0.4019     0.8759     0.8759    -0.0000
113 H      0.6069     1.0000     0.3931     0.8734     0.8734     0.0000
114 H      0.6154     1.0000     0.3846     0.8718     0.8718    -0.0000
115 H      0.5945     1.0000     0.4055     0.8644     0.8644    -0.0000
116 H      0.6119     1.0000     0.3881     0.8866     0.8866     0.0000
117 H      0.6162     1.0000     0.3838     0.8751     0.8751    -0.0000
118 H      0.6018     1.0000     0.3982     0.8763     0.8763    -0.0000
119 H      0.6094     1.0000     0.3906     0.8653     0.8653     0.0000
120 H      0.6114     1.0000     0.3886     0.8668     0.8668    -0.0000
121 H      0.6135     1.0000     0.3865     0.8708     0.8708    -0.0000
122 H      0.6074     1.0000     0.3926     0.8609     0.8609    -0.0000
123 H      0.6130     1.0000     0.3870     0.8707     0.8707    -0.0000
124 H      0.6122     1.0000     0.3878     0.8689     0.8689     0.0000
125 H      0.6181     1.0000     0.3819     0.8853     0.8853     0.0000
126 P     13.6187    15.0000     1.3813     4.9612     4.9612    -0.0000
127 O      8.2845     8.0000    -0.2845     1.6378     1.6378     0.0000
128 O      8.5360     8.0000    -0.5360     1.8386     1.8386     0.0000
129 O      8.4818     8.0000    -0.4818     1.7133     1.7133     0.0000
130 O      8.3469     8.0000    -0.3469     2.0863     2.0863     0.0000
131 O      8.7886     8.0000    -0.7886     1.3960     1.3960     0.0000
132 O      8.6734     8.0000    -0.6734     2.0276     2.0276    -0.0000
133 O      8.5105     8.0000    -0.5105     1.8339     1.8339     0.0000
134 O      8.9729     8.0000    -0.9729     1.5140     1.5140    -0.0000
135 N      7.4270     7.0000    -0.4270     3.6109     3.6109    -0.0000
136 N      7.1728     7.0000    -0.1728     2.3320     2.3320    -0.0000
137 N      7.3242     7.0000    -0.3242     3.0218     3.0218     0.0000
138 N      7.4343     7.0000    -0.4343     3.3165     3.3165     0.0000
139 N      7.7064     7.0000    -0.7064     2.9900     2.9900     0.0000
140 C      5.8998     6.0000     0.1002     3.5866     3.5866    -0.0000
141 C      6.5301     6.0000    -0.5301     4.5193     4.5193     0.0000
142 C      5.3284     6.0000     0.6716     3.5172     3.5172    -0.0000
143 C      5.7981     6.0000     0.2019     4.2099     4.2099     0.0000
144 C      6.8477     6.0000    -0.8477     5.1760     5.1760     0.0000
145 C      6.4611     6.0000    -0.4611     4.3828     4.3828     0.0000
146 C      5.5815     6.0000     0.4185     3.6726     3.6726    -0.0000
147 C      6.2697     6.0000    -0.2697     3.6803     3.6803     0.0000
148 C      5.7511     6.0000     0.2489     4.2432     4.2432    -0.0000
149 C      5.3643     6.0000     0.6357     3.4046     3.4046    -0.0000
150 H      0.7968     1.0000     0.2032     0.9496     0.9496     0.0000
151 H      0.8572     1.0000     0.1428     0.9639     0.9639     0.0000
152 H      0.8265     1.0000     0.1735     0.9452     0.9452    -0.0000
153 H      0.8172     1.0000     0.1828     0.9204     0.9204     0.0000
154 H      0.8751     1.0000     0.1249     0.8719     0.8719     0.0000
155 H      0.9148     1.0000     0.0852     0.9711     0.9711    -0.0000
156 H      0.6203     1.0000     0.3797     0.8783     0.8783     0.0000
157 H      0.7243     1.0000     0.2757     1.0309     1.0309     0.0000
158 H      0.7914     1.0000     0.2086     0.9441     0.9441     0.0000
159 H      0.7470     1.0000     0.2530     0.9676     0.9676     0.0000
160 H      0.7126     1.0000     0.2874     0.9350     0.9350     0.0000
161 H      0.6970     1.0000     0.3030     0.9369     0.9369     0.0000
162 H      0.6422     1.0000     0.3578     0.9298     0.9298     0.0000

  Mayer bond orders larger than 0.100000
B(  0-Si,  3-O ) :   1.0753 B(  0-Si,  4-O ) :   1.1537 B(  0-Si,  7-O ) :   1.1079 
B(  0-Si, 16-O ) :   1.0802 B(  1-Si,  4-O ) :   0.9099 B(  1-Si,  6-O ) :   0.8536 
B(  1-Si,  8-O ) :   0.8920 B(  1-Si, 26-O ) :   1.2092 B(  2-Si,  5-O ) :   1.0477 
B(  2-Si,  6-O ) :   1.1877 B(  2-Si,  9-O ) :   1.0117 B(  2-Si, 25-O ) :   1.0819 
B(  3-O ,  4-O ) :   0.1410 B(  3-O , 90-H ) :   0.8346 B(  4-O ,  6-O ) :   0.2191 
B(  4-O ,  7-O ) :   0.1584 B(  4-O ,  8-O ) :   0.1837 B(  4-O , 26-O ) :   0.1510 
B(  5-O ,  6-O ) :   0.1042 B(  5-O , 91-H ) :   0.8335 B(  6-O ,  8-O ) :   0.1802 
B(  6-O ,  9-O ) :   0.1476 B(  6-O , 26-O ) :   0.1299 B(  7-O , 92-H ) :   0.8372 
B(  8-O , 22-Si) :  -0.1648 B(  8-O , 26-O ) :   0.1054 B(  8-O , 93-H ) :   0.8366 
B(  9-O , 94-H ) :   0.8399 B( 10-Si, 13-O ) :   1.0652 B( 10-Si, 15-O ) :   1.1273 
B( 10-Si, 16-O ) :   1.0480 B( 10-Si, 18-O ) :   1.1269 B( 11-Si, 14-O ) :   1.0320 
B( 11-Si, 17-O ) :   1.1960 B( 11-Si, 19-O ) :   1.0066 B( 11-Si, 40-O ) :   1.0828 
B( 12-Si, 15-O ) :   0.8837 B( 12-Si, 17-O ) :   0.8102 B( 12-Si, 19-O ) :  -0.1023 
B( 12-Si, 20-O ) :   0.8734 B( 12-Si, 39-O ) :   1.2807 B( 13-O , 95-H ) :   0.8341 
B( 14-O , 17-O ) :   0.1155 B( 14-O , 96-H ) :   0.8335 B( 15-O , 17-O ) :   0.2522 
B( 15-O , 18-O ) :   0.1690 B( 15-O , 20-O ) :   0.1891 B( 15-O , 39-O ) :   0.1242 
B( 17-O , 19-O ) :   0.1509 B( 17-O , 20-O ) :   0.1778 B( 18-O , 97-H ) :   0.8376 
B( 19-O , 98-H ) :   0.8399 B( 20-O , 35-Si) :  -0.1716 B( 20-O , 39-O ) :   0.1398 
B( 20-O , 99-H ) :   0.8383 B( 21-Si, 25-O ) :   1.0313 B( 21-Si, 28-O ) :   1.1730 
B( 21-Si, 29-O ) :   1.0326 B( 21-Si, 31-O ) :   1.1131 B( 22-Si, 26-O ) :   0.6635 
B( 22-Si, 27-O ) :   0.9510 B( 22-Si, 32-O ) :   0.8474 B( 22-Si, 35-Si) :  -0.1914 
B( 22-Si, 43-O ) :   1.0013 B( 23-Si, 27-O ) :   0.8442 B( 23-Si, 30-O ) :   0.6823 
B( 23-Si, 33-O ) :   0.8641 B( 23-Si, 34-O ) :  -0.1531 B( 23-Si, 51-Si) :  -0.1854 
B( 23-Si, 55-O ) :   1.0703 B( 24-Si, 28-O ) :   0.8182 B( 24-Si, 30-O ) :   1.1718 
B( 24-Si, 34-O ) :   0.9551 B( 24-Si, 54-O ) :   0.8641 B( 25-O , 28-O ) :   0.1014 
B( 26-O , 27-O ) :   0.1779 B( 26-O , 32-O ) :   0.1286 B( 26-O , 43-O ) :   0.2345 
B( 27-O , 30-O ) :   0.1853 B( 27-O , 32-O ) :   0.1904 B( 27-O , 33-O ) :   0.1861 
B( 27-O , 43-O ) :   0.2163 B( 27-O , 55-O ) :   0.2043 B( 28-O , 29-O ) :   0.1257 
B( 28-O , 30-O ) :   0.1910 B( 28-O , 31-O ) :   0.1058 B( 28-O , 34-O ) :   0.1622 
B( 28-O , 54-O ) :   0.1835 B( 29-O ,100-H ) :   0.8343 B( 30-O , 33-O ) :   0.1781 
B( 30-O , 34-O ) :   0.1778 B( 30-O , 54-O ) :   0.1638 B( 30-O , 55-O ) :   0.2330 
B( 31-O ,101-H ) :   0.8220 B( 32-O , 43-O ) :   0.1838 B( 32-O ,102-H ) :   0.8129 
B( 33-O , 55-O ) :   0.2941 B( 33-O ,103-H ) :   0.8088 B( 34-O , 54-O ) :   0.1472 
B( 34-O ,104-H ) :   0.8270 B( 35-Si, 39-O ) :   0.4664 B( 35-Si, 42-O ) :   1.2124 
B( 35-Si, 43-O ) :   0.7049 B( 35-Si, 45-O ) :   0.8282 B( 36-Si, 40-O ) :   1.0016 
B( 36-Si, 41-O ) :   1.2361 B( 36-Si, 46-O ) :   1.1090 B( 36-Si, 49-O ) :   1.0004 
B( 37-Si, 38-Si) :  -0.1156 B( 37-Si, 41-O ) :   0.7444 B( 37-Si, 44-O ) :   1.3925 
B( 37-Si, 47-O ) :   0.9186 B( 37-Si, 69-O ) :   0.7496 B( 38-Si, 41-O ) :   0.1115 
B( 38-Si, 42-O ) :   0.7299 B( 38-Si, 44-O ) :   0.5946 B( 38-Si, 47-O ) :  -0.1771 
B( 38-Si, 48-O ) :   0.7354 B( 38-Si, 64-Si) :   0.1229 B( 38-Si, 68-O ) :   1.0562 
B( 38-Si,134-O ) :   0.1045 B( 38-Si,140-C ) :   0.1817 B( 38-Si,155-H ) :   0.1656 
B( 39-O , 42-O ) :   0.2610 B( 39-O , 43-O ) :   0.3354 B( 39-O , 45-O ) :   0.1139 
B( 41-O , 44-O ) :   0.2533 B( 41-O , 46-O ) :   0.1239 B( 41-O , 47-O ) :   0.1726 
B( 41-O , 49-O ) :   0.1683 B( 41-O , 69-O ) :   0.2643 B( 42-O , 43-O ) :   0.1587 
B( 42-O , 44-O ) :   0.2980 B( 42-O , 45-O ) :   0.2549 B( 42-O , 48-O ) :   0.2290 
B( 42-O , 68-O ) :   0.2991 B( 43-O , 45-O ) :   0.1238 B( 44-O , 47-O ) :   0.3385 
B( 44-O , 48-O ) :   0.2532 B( 44-O , 68-O ) :   0.2132 B( 44-O , 69-O ) :   0.2212 
B( 45-O ,105-H ) :   0.8155 B( 46-O ,106-H ) :   0.8224 B( 47-O , 69-O ) :   0.1479 
B( 47-O ,107-H ) :   0.8260 B( 48-O , 68-O ) :   0.3899 B( 48-O ,108-H ) :   0.8202 
B( 49-O ,109-H ) :   0.8338 B( 50-Si, 54-O ) :   1.1251 B( 50-Si, 57-O ) :   1.0660 
B( 50-Si, 58-O ) :   1.0938 B( 50-Si, 60-O ) :   1.0402 B( 51-Si, 52-Si) :  -0.1729 
B( 51-Si, 55-O ) :   0.5270 B( 51-Si, 56-O ) :   0.4304 B( 51-Si, 61-O ) :   0.8280 
B( 51-Si, 62-O ) :  -0.1717 B( 51-Si, 64-Si) :  -0.1646 B( 51-Si, 72-O ) :   1.4177 
B( 51-Si,138-N ) :   0.1026 B( 52-Si, 56-O ) :   1.4429 B( 52-Si, 59-O ) :   0.8186 
B( 52-Si, 62-O ) :   1.0433 B( 52-Si, 81-O ) :   0.7620 B( 52-Si, 83-O ) :  -0.1024 
B( 52-Si,149-C ) :   0.1239 B( 53-Si, 57-O ) :   1.0453 B( 53-Si, 59-O ) :   1.1420 
B( 53-Si, 63-O ) :   1.0544 B( 53-Si, 80-O ) :   1.0013 B( 54-O , 57-O ) :   0.1124 
B( 54-O , 60-O ) :   0.1209 B( 55-O , 56-O ) :   0.4104 B( 55-O , 61-O ) :   0.1558 
B( 55-O , 72-O ) :   0.1517 B( 55-O ,148-C ) :   0.1228 B( 56-O , 59-O ) :   0.2311 
B( 56-O , 61-O ) :   0.2269 B( 56-O , 62-O ) :   0.2879 B( 56-O , 72-O ) :   0.2877 
B( 56-O ,139-N ) :   0.1135 B( 56-O ,148-C ) :   0.1198 B( 56-O ,149-C ) :  -0.1393 
B( 57-O , 60-O ) :   0.1058 B( 57-O , 63-O ) :   0.1246 B( 58-O ,110-H ) :   0.8323 
B( 59-O , 62-O ) :   0.1311 B( 59-O , 63-O ) :   0.1258 B( 59-O , 80-O ) :   0.1207 
B( 59-O , 81-O ) :   0.2953 B( 60-O ,111-H ) :   0.8226 B( 61-O , 72-O ) :   0.3074 
B( 61-O ,112-H ) :   0.8365 B( 62-O , 81-O ) :   0.1378 B( 62-O ,113-H ) :   0.8188 
B( 63-O ,114-H ) :   0.8264 B( 64-Si, 68-O ) :   0.9322 B( 64-Si, 71-O ) :   0.4658 
B( 64-Si, 72-O ) :   0.9967 B( 64-Si, 74-O ) :   0.7839 B( 64-Si, 77-O ) :  -0.1696 
B( 64-Si,139-N ) :   0.1002 B( 64-Si,140-C ) :  -0.1897 B( 64-Si,141-C ) :   0.1034 
B( 65-Si, 69-O ) :   1.1492 B( 65-Si, 70-O ) :   1.1123 B( 65-Si, 75-O ) :   0.9879 
B( 65-Si, 78-O ) :   0.9653 B( 66-Si, 70-O ) :   1.1707 B( 66-Si, 73-O ) :   1.1907 
B( 66-Si, 76-O ) :   1.0366 B( 66-Si, 86-O ) :   0.9286 B( 67-Si, 71-O ) :   1.4474 
B( 67-Si, 73-O ) :   0.7596 B( 67-Si, 77-O ) :   0.8351 B( 67-Si, 85-O ) :   0.5932 
B( 68-O , 71-O ) :   0.4388 B( 68-O , 72-O ) :   0.3197 B( 68-O , 74-O ) :   0.2564 
B( 68-O ,140-C ) :  -0.1188 B( 68-O ,141-C ) :  -0.2922 B( 68-O ,144-C ) :   0.2258 
B( 68-O ,145-C ) :   0.1783 B( 68-O ,155-H ) :  -0.1145 B( 69-O , 75-O ) :   0.1284 
B( 69-O , 78-O ) :   0.1205 B( 70-O , 75-O ) :   0.1270 B( 70-O , 76-O ) :   0.1358 
B( 70-O , 78-O ) :   0.1593 B( 71-O , 72-O ) :   0.3049 B( 71-O , 73-O ) :   0.2329 
B( 71-O , 74-O ) :   0.2030 B( 71-O , 77-O ) :   0.3227 B( 71-O , 85-O ) :   0.2111 
B( 71-O ,139-N ) :  -0.1065 B( 71-O ,141-C ) :   0.1286 B( 72-O , 74-O ) :   0.3156 
B( 72-O ,138-N ) :   0.1026 B( 72-O ,139-N ) :  -0.1709 B( 72-O ,147-C ) :   0.1927 
B( 72-O ,149-C ) :  -0.5535 B( 73-O , 76-O ) :   0.1687 B( 73-O , 77-O ) :   0.2549 
B( 73-O , 85-O ) :   0.3585 B( 73-O , 86-O ) :   0.1400 B( 74-O ,115-H ) :   0.8305 
B( 75-O ,116-H ) :   0.8237 B( 76-O ,117-H ) :   0.8311 B( 77-O , 85-O ) :   0.2357 
B( 77-O ,118-H ) :   0.8333 B( 78-O ,119-H ) :   0.8290 B( 79-Si, 81-O ) :   1.1945 
B( 79-Si, 82-O ) :   1.1092 B( 79-Si, 83-O ) :   1.0435 B( 79-Si, 88-O ) :   1.1137 
B( 80-O ,120-H ) :   0.8349 B( 81-O , 82-O ) :   0.1088 B( 81-O , 83-O ) :   0.2189 
B( 82-O ,121-H ) :   0.8363 B( 83-O , 88-O ) :   0.1698 B( 83-O ,122-H ) :   0.8279 
B( 84-Si, 85-O ) :   1.2805 B( 84-Si, 87-O ) :   1.0732 B( 84-Si, 88-O ) :   1.0067 
B( 84-Si, 89-O ) :   1.0478 B( 85-O , 89-O ) :   0.1804 B( 85-O ,149-C ) :   0.2137 
B( 86-O ,123-H ) :   0.8356 B( 87-O ,124-H ) :   0.8343 B( 89-O ,125-H ) :   0.8162 
B(126-P ,130-O ) :   0.9169 B(126-P ,131-O ) :   1.3233 B(126-P ,132-O ) :   1.1755 
B(126-P ,134-O ) :   1.4537 B(126-P ,144-C ) :   0.1672 B(127-O ,135-N ) :  -0.1139 
B(127-O ,142-C ) :   0.9270 B(127-O ,143-C ) :   0.8091 B(128-O ,140-C ) :   0.8828 
B(128-O ,141-C ) :   0.1646 B(128-O ,156-H ) :   0.8181 B(129-O ,141-C ) :   0.8936 
B(129-O ,143-C ) :   0.1071 B(129-O ,157-H ) :   0.8779 B(130-O ,144-C ) :   1.0925 
B(132-O ,144-C ) :  -0.1324 B(132-O ,145-C ) :   0.2584 B(132-O ,147-C ) :   0.2885 
B(132-O ,149-C ) :  -0.1638 B(132-O ,162-H ) :   0.8420 B(133-O ,145-C ) :  -0.1752 
B(133-O ,147-C ) :  -0.1452 B(133-O ,148-C ) :   2.0336 B(135-N ,142-C ) :   1.0958 
B(135-N ,144-C ) :   0.3229 B(135-N ,145-C ) :   1.2848 B(135-N ,146-C ) :   0.9603 
B(136-N ,146-C ) :   1.4664 B(136-N ,147-C ) :   1.1013 B(136-N ,148-C ) :  -0.1894 
B(137-N ,142-C ) :  -0.1283 B(137-N ,145-C ) :   1.0186 B(137-N ,146-C ) :   0.1017 
B(137-N ,149-C ) :   1.7112 B(138-N ,144-C ) :  -0.1247 B(138-N ,145-C ) :   0.1946 
B(138-N ,148-C ) :   1.0314 B(138-N ,149-C ) :   0.9789 B(138-N ,159-H ) :   0.9075 
B(139-N ,149-C ) :   1.3557 B(139-N ,160-H ) :   0.8719 B(139-N ,161-H ) :   0.8803 
B(140-C ,141-C ) :   1.2606 B(140-C ,142-C ) :   0.6404 B(140-C ,144-C ) :  -0.1505 
B(140-C ,145-C ) :  -0.1256 B(140-C ,150-H ) :   0.8953 B(141-C ,142-C ) :  -0.3762 
B(141-C ,143-C ) :   1.0859 B(141-C ,144-C ) :   0.4891 B(141-C ,145-C ) :   0.2993 
B(141-C ,149-C ) :  -0.1998 B(141-C ,151-H ) :   0.9080 B(142-C ,143-C ) :   0.2212 
B(142-C ,146-C ) :   0.2138 B(142-C ,152-H ) :   0.8187 B(143-C ,144-C ) :   1.0266 
B(143-C ,153-H ) :   0.9380 B(144-C ,147-C ) :  -0.2463 B(144-C ,149-C ) :   0.2906 
B(144-C ,151-H ) :   0.1059 B(144-C ,154-H ) :   0.9338 B(144-C ,155-H ) :   1.1086 
B(145-C ,147-C ) :   1.6478 B(145-C ,154-H ) :  -0.1536 B(145-C ,158-H ) :   0.1459 
B(146-C ,158-H ) :   0.8227 B(147-C ,148-C ) :   1.3003 B(147-C ,149-C ) :  -0.2824 
B(148-C ,149-C ) :   0.1767 

-------
TIMINGS
-------

Total SCF time: 0 days 2 hours 12 min 27 sec 

Total time                  ....    7947.753 sec
Sum of individual times     ....    7628.110 sec  ( 96.0%)

SCF preparation             ....      17.969 sec  (  0.2%)
Fock matrix formation       ....    7308.129 sec  ( 92.0%)
  Startup                   ....       4.381 sec  (  0.1% of F)
  Split-RI-J                ....     569.657 sec  (  7.8% of F)
  Chain of spheres X        ....    6141.742 sec  ( 84.0% of F)
  XC integration            ....     371.290 sec  (  5.1% of F)
    Basis function eval.    ....      50.564 sec  ( 13.6% of XC)
    Density eval.           ....     171.934 sec  ( 46.3% of XC)
    XC-Functional eval.     ....       0.826 sec  (  0.2% of XC)
    XC-Potential eval.      ....     115.011 sec  ( 31.0% of XC)
  CPCM terms                ....     520.668 sec  (  7.1% of F)
Diagonalization             ....       0.000 sec  (  0.0%)
Density matrix formation    ....      27.120 sec  (  0.3%)
Total Energy calculation    ....       8.894 sec  (  0.1%)
Population analysis         ....      10.661 sec  (  0.1%)
Orbital Transformation      ....      28.329 sec  (  0.4%)
Orbital Orthonormalization  ....       0.000 sec  (  0.0%)
DIIS solution               ....     138.628 sec  (  1.7%)
SOSCF solution              ....      88.381 sec  (  1.1%)
Finished LeanSCF after 7951.9 sec

Maximum memory used throughout the entire LEANSCF-calculation: 2031.2 MB


-------------------------------------------------------------------------------
                          DFT DISPERSION CORRECTION                            
                                                                               
                              DFTD3 V3.1  Rev 1                                
                          USING Becke-Johnson damping                          
-------------------------------------------------------------------------------
The PBE0 functional is recognized
Active option DFTDOPT                   ...         4   

molecular C6(AA) [au] = 469137.795536 


            DFT-D V3
 parameters
 s6 scaling factor         :     1.0000 
 a1 scaling factor         :     0.4145 
 s8 scaling factor         :     1.2177 
 a2 scaling factor         :     4.8593 
 ad hoc parameters k1-k3   :    16.0000     1.3333    -4.0000 

 Edisp/kcal,au: -184.004053255375  -0.293229092520 
 E6   /kcal   : -110.172464472 
 E8   /kcal   : -73.831588783 
 % E8         :  40.124979574 

-------------------------   ----------------
Dispersion correction           -0.293229093
-------------------------   ----------------


-------------------------   --------------------
FINAL SINGLE POINT ENERGY    -13539.716029107436
-------------------------   --------------------



           ************************************************************
           *        Program running with 12 parallel MPI-processes    *
           *              working on a common directory               *
           ************************************************************
------------------------------------------------------------------------------
                         ORCA SCF GRADIENT CALCULATION
------------------------------------------------------------------------------

Nuc. rep. gradient        (SHARK) ... done (  0.0 sec)
HCore & Overlap gradient  (SHARK) ... done ( 34.4 sec)
Split-RIJ-J gradient      (SHARK) ... done (141.8 sec)
