158
Step=1
Si  0.82786700  16.90334400  8.02096700
Si  3.58136900  15.40762500  7.91943000
Si  3.62132900  12.33831900  7.77071700
O  -0.39701200  16.38550500  8.95587800
O   2.14700000  16.01900000  8.38100000
O   2.17393000  11.70025500  8.12670900
O   3.71000100  13.84500000  8.38400000
O   0.52581500  16.82840200  6.42284100
O   3.79662400  15.56897800  6.30711100
O   3.87929300  12.27716800  6.16303500
Si  0.79433300  20.03629800  8.10326300
Si  3.61572700  24.59084900  7.79118000
Si  3.58111200  21.51201500  7.92875500
O  -0.37743400  20.61303500  9.07085900
O   2.16859000  25.21944900  8.17241200
O   2.14700000  20.90100000  8.38100000
O   1.04500000  18.46000000  8.38400000
O   3.71000000  23.07500000  8.38400000
O   0.31417000  20.17153000  6.55808200
O   3.84019100  24.65595000  6.17595100
O   3.80149700  21.33822300  6.31797600
Si  6.22890000  10.74356700  7.88146100
Si  6.23079200  16.90711400  8.09670300
Si  8.88121300  15.40453000  8.12555500
Si  8.88371700  12.35505700  7.93320200
O   4.81100000  11.40400000  8.38100000
O   4.83537000  16.22066500  8.56291200
O   7.55222700  16.15299000  8.71554100
O   7.47600000  11.67100000  8.38100000
O   6.39193800  9.26634500  8.52969200
O   8.96054300  13.84929800  8.59983100
O   6.19301700  10.57149400  6.26973200
O   6.38089800  16.75788400  6.47172900
O   8.85378000  15.43986900  6.48627900
O   8.99823500  12.50776700  6.30690700
Si  6.22645000  20.02247300  8.07820700
Si  6.22278400  26.17273500  7.88814000
Si  8.88220000  24.56160400  7.94258600
Si  8.86548600  21.52001300  8.15691500
O   4.83050500  20.69149100  8.58467200
O   4.81100000  25.51600000  8.38100000
O   7.47600000  25.24900000  8.38100000
O   7.51636300  20.79931100  8.71564200
O   6.28089100  18.46758200  8.53407900
O   8.96048800  23.07585300  8.63029300
O   6.36271000  20.16919300  6.45537700
O   6.19603700  26.34294700  6.27286200
O   9.00133700  24.38776400  6.31828500
O   8.86093900  21.49105900  6.51270900
O   6.39570300  27.65719900  8.52187000
Si  11.54116200  10.90426400  7.70378100
Si  11.53957300  16.89915000  8.03170600
Si  14.18825800  15.40170800  7.89694700
Si  14.23499800  12.29550700  7.89652900
O   10.14000000  11.40400000  8.38100000
O   10.19880800  16.20166500  8.64929100
O   12.85784100  16.10198200  8.55943800
O   12.80500000  11.67100000  8.38100000
O   11.69918400  9.30019300  7.89277300
O   14.36800000  13.84500000  8.38400000
O   11.52561800  11.21016500  6.10096000
O   11.51203800  16.77598700  6.40105600
O   14.04450000  15.44196900  6.27725800
O   14.36331200  12.11881400  6.28544500
Si  11.52259600  20.03390100  8.04812900
Si  11.53909200  26.01146800  7.69986200
Si  14.22856100  24.62203100  7.88305800
Si  14.17540800  21.51770800  7.92231900
O   10.17929700  20.71227200  8.67734100
O   10.14000000  25.51600000  8.38100000
O   12.80500000  25.24900000  8.38100000
O   12.83767600  20.84003200  8.58041300
O   11.61573000  18.46535600  8.47801400
O   14.36800000  23.07500000  8.38400000
O   11.49701600  20.18423800  6.41966100
O   11.52259100  25.69289300  6.09899700
O   14.33281300  24.77047200  6.26810100
O   14.06919700  21.41163700  6.29256200
O   11.69974100  27.61661000  7.87551700
Si  16.92237100  16.88788900  7.96479300
O   15.47186100  11.46976200  8.55014700
O   15.46900000  16.28600000  8.38100000
O   18.08758400  16.12065000  8.79422100
O   17.19297600  16.72251200  6.36680000
Si  16.71045300  19.87385500  7.64434800
O   15.46900000  20.63400000  8.38100000
O   15.47572700  25.45072400  8.51038100
O   18.03824500  20.80938600  7.65462300
O   17.03200000  18.46000000  8.38400000
O   16.32864900  19.55590100  6.08998300
H  -0.49848600  15.43701000  9.07535900
H   1.70085100  12.05696700  8.88391800
H   0.31711600  15.96918400  6.04454300
H   3.06913300  15.40014800  5.70181700
H   3.24011300  12.66343400  5.55773600
H  -0.16073500  20.77050500  9.99416300
H   1.69836200  24.83633400  8.91815800
H   0.10777000  21.05331800  6.23424800
H   3.18867900  24.26610300  5.58650700
H   3.08701100  21.54554800  5.70893500
H   6.87753000  9.19422600  9.35611400
H   5.51562000  11.10059200  5.82485500
H   5.58752300  16.43092700  6.01956800
H   8.06222600  15.87626600  6.12055100
H   8.85790000  13.40265600  5.96449800
H   5.56857700  20.50551700  6.01001800
H   5.50497300  25.82877700  5.83233500
H   8.87960600  23.48212000  5.99527300
H   8.07309400  21.06415000  6.13081600
H   6.84459200  27.72864800  9.36867400
H   12.07693700  8.98077100  8.71700800
H   10.74258300  11.69905800  5.80154600
H   10.69599000  16.42278300  6.01917800
H   13.22250100  15.84725100  5.96190000
H   13.52419600  11.98747600  5.82388100
H   10.67613400  20.53851900  6.04724900
H   10.73979600  25.19889100  5.80638600
H   13.48883300  24.92062400  5.82013100
H   13.21026400  21.09217700  5.97172400
H   12.07627600  27.94289300  8.69761600
H   15.82500600  11.79199000  9.38369300
H   17.94627100  15.19254400  8.99973200
H   16.80733900  17.41661800  5.81704300
H   15.83346500  25.14480500  9.34820400
H   18.44389000  21.00898800  8.50323300
H   15.57279300  20.05902300  5.75322000
N   6.38771900  12.36582700  15.24749700
C   6.24013800  11.41461300  16.23776600
N   6.71939500  11.79785500  17.46285600
C   7.32679700  12.99657700  17.80784200
C   7.44728200  13.91877000  16.71068000
C   6.98173600  13.56972900  15.49874200
O   5.72532200  10.32641700  16.05853700
O   7.70197500  13.18374800  18.95599800
C   5.92780900  12.06360400  13.89998000
C   4.83283600  12.98630100  13.38859900
C   5.05738600  12.94185100  11.89388300
C   6.58111800  12.82665000  11.79293400
O   4.40930500  11.78467500  11.39444700
O   7.01383500  12.21153300  13.00913900
C   7.30336400  14.13258900  11.56184400
O   7.09889900  15.02335600  12.64302100
P   6.95625400  16.61993300  12.37829500
O   5.80454900  16.87716400  11.46797200
O   7.03766800  17.23781400  13.72724800
O   8.32480100  16.96938300  11.57883200
H   6.61290700  11.11313900  18.19991200
H   7.91388100  14.87856900  16.87512000
H   7.06409700  14.22052600  14.63548500
H   5.59884400  11.02543400  13.92864400
H   3.83757900  12.64644100  13.67199500
H   4.98708000  14.00129100  13.75547100
H   4.69433200  13.84004900  11.38514100
H   6.84501900  12.16459900  10.96190900
H   4.65498900  11.66354700  10.46836300
H   8.37539400  13.94158700  11.45484600
H   6.93552000  14.55894900  10.62425700
H   8.15119700  16.97907500  10.62846100
158
Step=2
Si  0.82775500  16.90327800  8.02156600
Si  3.58131900  15.40755900  7.91926600
Si  3.62083500  12.33809500  7.77136100
O  -0.39661700  16.38550000  8.95759800
O   2.14700000  16.01900000  8.38100000
O   2.17367800  11.70002800  8.12935700
O   3.71000100  13.84500000  8.38400000
O   0.52382600  16.82763500  6.42365000
O   3.79644100  15.56876500  6.30680900
O   3.87694400  12.27547800  6.16329600
Si  0.79433700  20.03630700  8.10376100
Si  3.61500800  24.59115600  7.79228400
Si  3.58101300  21.51207800  7.92848700
O  -0.37699700  20.61290400  9.07230600
O   2.16835300  25.21960600  8.17633500
O   2.14700000  20.90100000  8.38100000
O   1.04500000  18.46000000  8.38400000
O   3.71000000  23.07500000  8.38400000
O   0.31280400  20.17218100  6.55886800
O   3.83684800  24.65810000  6.17664500
O   3.80101600  21.33851100  6.31753600
Si  6.22886300  10.74382400  7.88133800
Si  6.23081500  16.90704900  8.09639600
Si  8.88105700  15.40450100  8.12530400
Si  8.88368500  12.35500300  7.93316000
O   4.81100000  11.40400000  8.38100000
O   4.83539200  16.22060400  8.56258100
O   7.55210800  16.15297400  8.71551000
O   7.47600000  11.67100000  8.38100000
O   6.39206600  9.26619500  8.52912400
O   8.96052800  13.84927500  8.59950900
O   6.19307800  10.57175100  6.26940300
O   6.38128800  16.75795600  6.47134800
O   8.85360400  15.43931900  6.48595700
O   8.99811100  12.50704900  6.30673500
Si  6.22640100  20.02237100  8.07742100
Si  6.22276700  26.17238800  7.88792300
Si  8.88217100  24.56167000  7.94250800
Si  8.86545300  21.52002000  8.15589400
O   4.83054400  20.69153100  8.58397100
O   4.81100000  25.51600000  8.38100000
O   7.47600000  25.24900000  8.38100000
O   7.51638900  20.79922000  8.71459700
O   6.28073300  18.46755400  8.53351400
O   8.96038200  23.07574600  8.62966900
O   6.36262800  20.16859200  6.45443600
O   6.19606800  26.34239500  6.27240900
O   9.00109000  24.38867300  6.31803100
O   8.86088700  21.49175700  6.51160300
O   6.39573600  27.65724500  8.52121600
Si  11.54113100  10.90405000  7.70413200
Si  11.53944400  16.89915300  8.03100100
Si  14.18826800  15.40170000  7.89696800
Si  14.23503300  12.29550600  7.89683000
O   10.14000000  11.40400000  8.38100000
O   10.19876200  16.20165200  8.64857800
O   12.85772600  16.10207600  8.55888800
O   12.80500000  11.67100000  8.38100000
O   11.69926100  9.29990800  7.89410200
O   14.36800000  13.84500000  8.38400000
O   11.52587000  11.20893200  6.10100200
O   11.51242500  16.77593000  6.40024500
O   14.04518500  15.44157300  6.27702900
O   14.36443600  12.11831700  6.28569000
Si  11.52261600  20.03388700  8.04718500
Si  11.53908100  26.01166400  7.70018500
Si  14.22863700  24.62203800  7.88345200
Si  14.17555800  21.51775600  7.92204600
O   10.17933300  20.71234800  8.67618800
O   10.14000000  25.51600000  8.38100000
O   12.80500000  25.24900000  8.38100000
O   12.83773600  20.83987600  8.57960200
O   11.61559500  18.46538300  8.47707200
O   14.36800000  23.07500000  8.38400000
O   11.49748700  20.18414100  6.41858500
O   11.52294000  25.69403300  6.09901800
O   14.33408800  24.77111300  6.26842800
O   14.07021100  21.41201300  6.29213500
O   11.69980800  27.61688200  7.87678000
Si  16.92228900  16.88793400  7.96476200
O   15.47184100  11.46991000  8.55122600
O   15.46900000  16.28600000  8.38100000
O   18.08774300  16.12054600  8.79412500
O   17.19316300  16.72232900  6.36662100
Si  16.71092900  19.87423300  7.64493900
O   15.46900000  20.63400000  8.38100000
O   15.47571100  25.45047900  8.51178200
O   18.03898600  20.80969700  7.65721600
O   17.03200000  18.46000000  8.38400000
O   16.33091300  19.55718400  6.08984900
H  -0.49631000  15.43698500  9.08033500
H   1.69873900  12.06046000  8.88390400
H   0.31503800  15.96814600  6.04543300
H   3.06980100  15.39730000  5.70092100
H   3.23642500  12.65968600  5.55773600
H  -0.15942800  20.77234200  9.99529700
H   1.69745700  24.83409700  8.92071200
H   0.10742700  21.05431800  6.23464400
H   3.18342800  24.27095900  5.58715100
H   3.08669200  21.54642500  5.70816800
H   6.88117400  9.19284600  9.35361000
H   5.51405200  11.09893700  5.82433400
H   5.58874500  16.42913800  6.01882800
H   8.06095100  15.87349500  6.11977200
H   8.85785100  13.40192300  5.96386300
H   5.56915000  20.50650800  6.00883000
H   5.50429800  25.82910600  5.83150400
H   8.87906000  23.48315300  5.99433200
H   8.07188500  21.06716900  6.12926000
H   6.84728300  27.72976200  9.36676400
H   12.07795700  8.98053100  8.71817100
H   10.74298000  11.69794800  5.80079500
H   10.69704900  16.42137000  6.01781100
H   13.22407600  15.84842100  5.96075200
H   13.52605300  11.98393200  5.82332200
H   10.67763800  20.54081800  6.04581200
H   10.74057600  25.19942100  5.80568000
H   13.49081200  24.92339600  5.81949400
H   13.21257700  21.08949100  5.97046900
H   12.07731100  27.94315600  8.69868700
H   15.82664500  11.79353800  9.38379100
H   17.94605600  15.19269700  9.00161700
H   16.80875200  17.41688700  5.81623900
H   15.83462100  25.14334300  9.34892300
H   18.44459900  21.00825400  8.50631200
H   15.57470200  20.05961300  5.75236600
N   6.39108300  12.36368400  15.25158600
C   6.24362900  11.41308700  16.24223700
N   6.72331600  11.79660200  17.46701900
C   7.33065600  12.99534400  17.81098700
C   7.45095300  13.91711400  16.71399200
C   6.98535600  13.56750500  15.50220900
O   5.72856100  10.32451900  16.06371100
O   7.70550300  13.18347800  18.95977400
C   5.93031300  12.06153100  13.90428700
C   4.83487500  12.98427600  13.39403000
C   5.05853200  12.94114000  11.89905800
C   6.58220800  12.82610200  11.79667300
O   4.41017000  11.78436200  11.39856400
O   7.01569100  12.21020900  13.01244900
C   7.30453500  14.13195900  11.56502700
O   7.10284600  15.02292800  12.64720400
P   6.95952000  16.61937800  12.38347000
O   5.80509200  16.87735700  11.47657600
O   7.04443500  17.23761500  13.73267500
O   8.32559100  16.97090700  11.58092800
H   6.61698600  11.11206400  18.20454900
H   7.91862500  14.87649300  16.87789600
H   7.06633800  14.21859900  14.63911400
H   5.60173400  11.02333300  13.93280400
H   3.83989900  12.64402200  13.67792100
H   4.98893400  13.99906400  13.76156200
H   4.69502400  13.83961000  11.39130600
H   6.84563600  12.16453500  10.96519500
H   4.65509900  11.66345400  10.47216300
H   8.37618900  13.94050300  11.45624700
H   6.93547500  14.55844100  10.62785600
H   8.15111400  16.97973600  10.63044700
158
Step=3
Si  0.82747900  16.90310500  8.02313500
Si  3.58105700  15.40727000  7.91860500
Si  3.61953000  12.33749200  7.77317500
O  -0.39571800  16.38539800  8.96167500
O   2.14700000  16.01900000  8.38100000
O   2.17313300  11.69950500  8.13662100
O   3.71000100  13.84500000  8.38400000
O   0.51913300  16.82608200  6.42579100
O   3.79536800  15.56766900  6.30579400
O   3.87090000  12.27148500  6.16421400
Si  0.79430700  20.03634600  8.10521200
Si  3.61350700  24.59176600  7.79471300
Si  3.58069300  21.51231500  7.92763800
O  -0.37583700  20.61241300  9.07626700
O   2.16783400  25.21989900  8.18466700
O   2.14700000  20.90100000  8.38100000
O   1.04500000  18.46000000  8.38400000
O   3.71000000  23.07500000  8.38400000
O   0.30920500  20.17357400  6.56116000
O   3.83004200  24.66229500  6.17828200
O   3.79937300  21.33996000  6.31620600
Si  6.22871300  10.74455500  7.88103700
Si  6.23087100  16.90668600  8.09331300
Si  8.88088500  15.40445900  8.12400500
Si  8.88360000  12.35481000  7.93289700
O   4.81100000  11.40400000  8.38100000
O   4.83567500  16.22057200  8.56061100
O   7.55162600  16.15299400  8.71380600
O   7.47600000  11.67100000  8.38100000
O   6.39222600  9.26592200  8.52763800
O   8.96033900  13.84926600  8.59828000
O   6.19295600  10.57299700  6.26858300
O   6.38136200  16.75729300  6.46809200
O   8.85432400  15.43854500  6.48453300
O   8.99797100  12.50511700  6.30618400
Si  6.22629100  20.02218500  8.07412100
Si  6.22271700  26.17181800  7.88789800
Si  8.88211700  24.56192100  7.94206600
Si  8.86545800  21.52003800  8.15292700
O   4.83074900  20.69146700  8.58141300
O   4.81100000  25.51600000  8.38100000
O   7.47600000  25.24900000  8.38100000
O   7.51646200  20.79875700  8.71104500
O   6.28040100  18.46725700  8.52993500
O   8.96003900  23.07551700  8.62771900
O   6.36206900  20.16813900  6.45085700
O   6.19590400  26.34214300  6.27196000
O   9.00077300  24.39108300  6.31720000
O   8.86183100  21.49275200  6.50849800
O   6.39566800  27.65722000  8.52100600
Si  11.54105500  10.90329100  7.70528300
Si  11.53921500  16.89929000  8.02977800
Si  14.18820600  15.40169800  7.89716100
Si  14.23499600  12.29556200  7.89742800
O   10.14000000  11.40400000  8.38100000
O   10.19856600  16.20166600  8.64681600
O   12.85746200  16.10221600  8.55790000
O   12.80500000  11.67100000  8.38100000
O   11.69946400  9.29911900  7.89827100
O   14.36800000  13.84500000  8.38400000
O   11.52656200  11.20494900  6.10132500
O   11.51348400  16.77667100  6.39875100
O   14.04632800  15.44051900  6.27670700
O   14.36626000  12.11785300  6.28608400
Si  11.52270900  20.03378100  8.04534300
Si  11.53905600  26.01243000  7.70128900
Si  14.22874100  24.62203900  7.88433200
Si  14.17582000  21.51787200  7.92151600
O   10.17932500  20.71259000  8.67338100
O   10.14000000  25.51600000  8.38100000
O   12.80500000  25.24900000  8.38100000
O   12.83784500  20.83963600  8.57794100
O   11.61530300  18.46548700  8.47550400
O   14.36800000  23.07500000  8.38400000
O   11.49873800  20.18288800  6.41636300
O   11.52379700  25.69801700  6.09927400
O   14.33654300  24.77217600  6.26914600
O   14.07203600  21.41316700  6.29128800
O   11.69996000  27.61768200  7.88092300
Si  16.92205700  16.88807200  7.96467000
O   15.47181500  11.47015600  8.55311700
O   15.46900000  16.28600000  8.38100000
O   18.08812900  16.12025600  8.79365600
O   17.19356200  16.72204500  6.36624000
Si  16.71224900  19.87530400  7.64656500
O   15.46900000  20.63400000  8.38100000
O   15.47568000  25.45001200  8.51464200
O   18.04091700  20.81054400  7.66411900
O   17.03200000  18.46000000  8.38400000
O   16.33694900  19.56091900  6.08962100
H  -0.49042600  15.43736800  9.09273700
H   1.69358600  12.06984900  8.88355500
H   0.31108000  15.96621800  6.04773400
H   3.07129000  15.38837400  5.69893600
H   3.22779300  12.65161500  5.55863000
H  -0.15593800  20.77680800  9.99795100
H   1.69461600  24.82810500  8.92441500
H   0.10658400  21.05616000  6.23608300
H   3.17367300  24.27961200  5.58895700
H   3.08602300  21.55079100  5.70652600
H   6.89041600  9.18946900  9.34649700
H   5.51097000  11.09647200  5.82346500
H   5.58970900  16.42674200  6.01513900
H   8.06283300  15.87404800  6.11726100
H   8.85853600  13.39985700  5.96239100
H   5.56943600  20.50801200  6.00509700
H   5.50195000  25.83223200  5.83039000
H   8.87903600  23.48595200  5.99207300
H   8.07403200  21.06679100  6.12511500
H   6.85424800  27.73186400  9.36269400
H   12.08063900  8.98042700  8.72158200
H   10.74435700  11.69405800  5.79919700
H   10.69934400  16.42076600  6.01481500
H   13.22714100  15.85009300  5.95869600
H   13.52945900  11.97870800  5.82210000
H   10.68061400  20.54239800  6.04235400
H   10.74228300  25.20307900  5.80397100
H   13.49493300  24.92832000  5.81829000
H   13.21634300  21.08690300  5.96798400
H   12.08004800  27.94330300  8.70201700
H   15.83082800  11.79697400  9.38275500
H   17.94537300  15.19358400  9.00617700
H   16.81253800  17.41770200  5.81475000
H   15.83765700  25.13996700  9.34951200
H   18.44627000  21.00594600  8.51418400
H   15.58073500  20.06231300  5.75040200
N   6.39944900  12.35973200  15.25991500
C   6.25078100  11.41054800  16.25121300
N   6.72992200  11.79444400  17.47597600
C   7.33603300  12.99346000  17.81872600
C   7.46011800  13.91330900  16.72149100
C   6.99417900  13.56337100  15.50983000
O   5.73455300  10.32184500  16.07358300
O   7.71384300  13.18123200  18.96768100
C   5.93664800  12.05801500  13.91310700
C   4.83976400  12.98050400  13.40557000
C   5.06087700  12.93969000  11.91024400
C   6.58440400  12.82579000  11.80468600
O   4.41237000  11.78329000  11.40853800
O   7.02041000  12.20869300  13.01927700
C   7.30584400  14.13181100  11.57164900
O   7.10761000  15.02358500  12.65475300
P   6.96072400  16.61902300  12.39113500
O   5.80083200  16.87569100  11.49030100
O   7.05107500  17.23944900  13.74027000
O   8.32196500  16.97540700  11.58315300
H   6.62162100  11.11104300  18.21442700
H   7.92708200  14.87297200  16.88563000
H   7.07794000  14.21310600  14.64605300
H   5.60935200  11.01950100  13.94115600
H   3.84553600  12.63937600  13.69103300
H   4.99343200  13.99506200  13.77403500
H   4.69566900  13.83842600  11.40436400
H   6.84700900  12.16531600  10.97222800
H   4.65527400  11.66314700  10.48156800
H   8.37716900  13.94067700  11.46046300
H   6.93451600  14.55772800  10.63500200
H   8.14691700  16.98133500  10.63266200
158
Step=4
Si  0.82726100  16.90294800  8.02459800
Si  3.58073500  15.40693500  7.91783800
Si  3.61817800  12.33685200  7.77518100
O  -0.39498800  16.38514800  8.96501500
O   2.14700000  16.01900000  8.38100000
O   2.17276700  11.69902500  8.14447600
O   3.71000100  13.84500000  8.38400000
O   0.51524800  16.82512500  6.42781100
O   3.79401600  15.56652800  6.30475500
O   3.86485800  12.26793800  6.16544100
Si  0.79423500  20.03640200  8.10679200
Si  3.61221100  24.59228300  7.79687100
Si  3.58036800  21.51257300  7.92676600
O  -0.37463300  20.61177600  9.08036000
O   2.16748500  25.22021200  8.19194700
O   2.14700000  20.90100000  8.38100000
O   1.04500000  18.46000000  8.38400000
O   3.71000000  23.07500000  8.38400000
O   0.30565800  20.17463600  6.56366700
O   3.82446000  24.66554100  6.17986900
O   3.79768400  21.34156300  6.31492900
Si  6.22850100  10.74534000  7.88071300
Si  6.23088100  16.90629400  8.08929900
Si  8.88072700  15.40440900  8.12222100
Si  8.88352900  12.35460700  7.93254000
O   4.81100000  11.40400000  8.38100000
O   4.83602200  16.22060300  8.55819500
O   7.55102300  16.15299000  8.71132900
O   7.47600000  11.67100000  8.38100000
O   6.39218100  9.26583400  8.52617800
O   8.96013600  13.84932900  8.59684100
O   6.19253400  10.57481100  6.26778600
O   6.38111700  16.75653300  6.46401800
O   8.85497600  15.43749000  6.48267000
O   8.99790600  12.50326300  6.30559100
Si  6.22617800  20.02203800  8.07059700
Si  6.22265300  26.17143900  7.88816500
Si  8.88208600  24.56218800  7.94149900
Si  8.86548500  21.52007200  8.14995900
O   4.83096200  20.69134900  8.57871500
O   4.81100000  25.51600000  8.38100000
O   7.47600000  25.24900000  8.38100000
O   7.51652500  20.79827200  8.70736400
O   6.28008200  18.46685700  8.52574900
O   8.95969100  23.07531900  8.62571700
O   6.36140400  20.16796100  6.44716900
O   6.19554600  26.34225600  6.27195100
O   9.00059700  24.39338300  6.31631200
O   8.86276000  21.49391100  6.50546300
O   6.39549200  27.65706100  8.52158900
Si  11.54099000  10.90236500  7.70659000
Si  11.53905200  16.89943200  8.02841400
Si  14.18815900  15.40167000  7.89727200
Si  14.23493600  12.29559300  7.89803500
O   10.14000000  11.40400000  8.38100000
O   10.19830300  16.20176700  8.64474100
O   12.85719600  16.10227700  8.55684000
O   12.80500000  11.67100000  8.38100000
O   11.69963700  9.29832400  7.90286800
O   14.36800000  13.84500000  8.38400000
O   11.52721900  11.20047200  6.10184000
O   11.51449800  16.77750900  6.39719700
O   14.04729200  15.43936500  6.27642800
O   14.36753900  12.11767000  6.28655400
Si  11.52283600  20.03367700  8.04351100
Si  11.53903900  26.01339400  7.70257800
Si  14.22881900  24.62207200  7.88518700
Si  14.17603400  21.51798900  7.92104100
O   10.17932300  20.71279300  8.67056500
O   10.14000000  25.51600000  8.38100000
O   12.80500000  25.24900000  8.38100000
O   12.83790300  20.83946400  8.57637000
O   11.61510200  18.46557100  8.47391800
O   14.36800000  23.07500000  8.38400000
O   11.49991300  20.18160600  6.41423500
O   11.52456100  25.70265600  6.09972700
O   14.33844400  24.77294100  6.26991700
O   14.07350100  21.41446500  6.29057700
O   11.70006900  27.61851600  7.88563100
Si  16.92185900  16.88819700  7.96469900
O   15.47166300  11.47029200  8.55481900
O   15.46900000  16.28600000  8.38100000
O   18.08838400  16.11999000  8.79331500
O   17.19405500  16.72183300  6.36613900
Si  16.71365100  19.87643900  7.64825600
O   15.46900000  20.63400000  8.38100000
O   15.47555000  25.44972000  8.51714200
O   18.04281300  20.81139600  7.67097100
O   17.03200000  18.46000000  8.38400000
O   16.34292700  19.56484700  6.08958400
H  -0.48445000  15.43784900  9.10409300
H   1.68889600  12.07943800  8.88342200
H   0.30904600  15.96496900  6.04962600
H   3.07269800  15.37882700  5.69724800
H   3.21978600  12.64532700  5.56035800
H  -0.15230400  20.78088500  10.00052400
H   1.69159100  24.82201700  8.92642800
H   0.10565100  21.05745400  6.23785100
H   3.16634700  24.28549500  5.59092200
H   3.08563000  21.55614600  5.70516700
H   6.89943900  9.18643400  9.33905600
H   5.50868600  11.09594100  5.82297200
H   5.59014600  16.42468900  6.01095200
H   8.06394100  15.87277700  6.11434500
H   8.85866300  13.39764600  5.96095300
H   5.56930600  20.50892900  6.00148100
H   5.49989000  25.83528400  5.82996400
H   8.87872000  23.48883000  5.98987100
H   8.07585300  21.06741300  6.12111900
H   6.86128900  27.73341500  9.35904700
H   12.08340000  8.98072400  8.72530400
H   10.74576500  11.68945200  5.79794100
H   10.70140900  16.42084300  6.01198900
H   13.22969700  15.85081500  5.95706700
H   13.53199200  11.97612400  5.82125100
H   10.68298600  20.54246700  6.03913000
H   10.74371100  25.20806400  5.80250400
H   13.49822300  24.93146900  5.81755600
H   13.21899700  21.08663000  5.96596600
H   12.08283700  27.94303000  8.70582000
H   15.83464700  11.80015800  9.38141100
H   17.94431500  15.19478900  9.01091900
H   16.81631900  17.41849500  5.81384200
H   15.84054100  25.13684100  9.34953200
H   18.44786600  21.00334200  8.52188600
H   15.58686300  20.06531700  5.74895300
N   6.40998500  12.35604600  15.26629700
C   6.26238700  11.40653600  16.25709700
N   6.74439800  11.78865700  17.48125400
C   7.35498400  12.98539800  17.82236600
C   7.47286900  13.90840000  16.72751100
C   7.00555700  13.55927300  15.51603600
O   5.74356100  10.31879900  16.07996600
O   7.72116200  13.17826800  18.97471200
C   5.94474700  12.05533400  13.92002600
C   4.84620600  12.97752800  13.41567300
C   5.06406800  12.93835600  11.91998200
C   6.58741600  12.82586700  11.81105900
O   4.41539600  11.78197800  11.41834700
O   7.02662300  12.20814500  13.02426200
C   7.30733600  14.13229000  11.57669600
O   7.11085500  15.02446600  12.66022900
P   6.95893100  16.61872200  12.39645400
O   5.79411900  16.87246800  11.50075700
O   7.05315800  17.24094600  13.74534500
O   8.31586800  16.97996400  11.58397000
H   6.63924800  11.10380300  18.21872600
H   7.94279700  14.86664000  16.89131000
H   7.08456100  14.21145200  14.65365700
H   5.61872400  11.01641700  13.94745300
H   3.85279100  12.63578500  13.70326800
H   5.00004900  13.99193200  13.78464000
H   4.69683900  13.83717200  11.41572600
H   6.84916400  12.16634300  10.97765000
H   4.65591100  11.66273100  10.49079000
H   8.37864500  13.94226100  11.46378300
H   6.93383500  14.55746600  10.64056900
H   8.14083700  16.98251700  10.63357900
158
Step=5
Si  0.82730500  16.90295800  8.02452900
Si  3.58068800  15.40690200  7.91774900
Si  3.61815300  12.33681800  7.77534000
O  -0.39511500  16.38498400  8.96442100
O   2.14700000  16.01900000  8.38100000
O   2.17295800  11.69902300  8.14507000
O   3.71000100  13.84500000  8.38400000
O   0.51587400  16.82563900  6.42772800
O   3.79377100  15.56656800  6.30474000
O   3.86488900  12.26832900  6.16568200
Si  0.79417700  20.03642900  8.10699800
Si  3.61218800  24.59229600  7.79691000
Si  3.58035000  21.51260000  7.92670600
O  -0.37451300  20.61162500  9.08072500
O   2.16762600  25.22026700  8.19213000
O   2.14700000  20.90100000  8.38100000
O   1.04500000  18.46000000  8.38400000
O   3.71000000  23.07500000  8.38400000
O   0.30551700  20.17443000  6.56399500
O   3.82466000  24.66518400  6.18000400
O   3.79760600  21.34163900  6.31494000
Si  6.22845400  10.74535300  7.88076000
Si  6.23082000  16.90630800  8.08858500
Si  8.88067600  15.40440100  8.12184200
Si  8.88354000  12.35460600  7.93247700
O   4.81100000  11.40400000  8.38100000
O   4.83604900  16.22067600  8.55784500
O   7.55089000  16.15300000  8.71076100
O   7.47600000  11.67100000  8.38100000
O   6.39200200  9.26603500  8.52644000
O   8.96010700  13.84939300  8.59669600
O   6.19229200  10.57509600  6.26788300
O   6.38093300  16.75650900  6.46342900
O   8.85475300  15.43714300  6.48232300
O   8.99796800  12.50332500  6.30557100
Si  6.22616200  20.02207600  8.07042300
Si  6.22263000  26.17150100  7.88827100
Si  8.88210700  24.56219600  7.94140700
Si  8.86549200  21.52008900  8.14991300
O   4.83095000  20.69132400  8.57856500
O   4.81100000  25.51600000  8.38100000
O   7.47600000  25.24900000  8.38100000
O   7.51650900  20.79827300  8.70723100
O   6.28006400  18.46680100  8.52530700
O   8.95968900  23.07533200  8.62566200
O   6.36133700  20.16808700  6.44708800
O   6.19535200  26.34213300  6.27214500
O   9.00069000  24.39334400  6.31627200
O   8.86261400  21.49420600  6.50547300
O   6.39540400  27.65695000  8.52186600
Si  11.54100000  10.90220500  7.70673800
Si  11.53908600  16.89940700  8.02814800
Si  14.18818700  15.40163900  7.89717000
Si  14.23495600  12.29553800  7.89814500
O   10.14000000  11.40400000  8.38100000
O   10.19823300  16.20183800  8.64439000
O   12.85717900  16.10221300  8.55667200
O   12.80500000  11.67100000  8.38100000
O   11.69960900  9.29830000  7.90329200
O   14.36800000  13.84500000  8.38400000
O   11.52718100  11.20001100  6.10200700
O   11.51445300  16.77745400  6.39700800
O   14.04724500  15.43925100  6.27642100
O   14.36735300  12.11768000  6.28675800
Si  11.52287000  20.03368100  8.04335400
Si  11.53904800  26.01358400  7.70275400
Si  14.22883500  24.62212800  7.88525700
Si  14.17602500  21.51799700  7.92103200
O   10.17934600  20.71275000  8.67043000
O   10.14000000  25.51600000  8.38100000
O   12.80500000  25.24900000  8.38100000
O   12.83786700  20.83949600  8.57631500
O   11.61518000  18.46554000  8.47370800
O   14.36800000  23.07500000  8.38400000
O   11.49987600  20.18172400  6.41416400
O   11.52449200  25.70324500  6.09990300
O   14.33820000  24.77286900  6.27007500
O   14.07337800  21.41459800  6.29062900
O   11.70003200  27.61856700  7.88617600
Si  16.92186300  16.88821700  7.96473700
O   15.47148600  11.47021300  8.55501500
O   15.46900000  16.28600000  8.38100000
O   18.08833500  16.11999400  8.79317500
O   17.19398100  16.72200300  6.36628100
Si  16.71382100  19.87656900  7.64841400
O   15.46900000  20.63400000  8.38100000
O   15.47541200  25.44986100  8.51714800
O   18.04290400  20.81146600  7.67131000
O   17.03200000  18.46000000  8.38400000
O   16.34318100  19.56524400  6.08975100
H  -0.48413900  15.43773400  9.10352100
H   1.68909400  12.08012700  8.88356600
H   0.31077400  15.96544700  6.04922600
H   3.07259600  15.37811500  5.69740800
H   3.22022800  12.64676600  5.56094700
H  -0.15190400  20.78069300  10.00074900
H   1.69156600  24.82148100  8.92608100
H   0.10541800  21.05717500  6.23827400
H   3.16711000  24.28400000  5.59130000
H   3.08577500  21.55695500  5.70530000
H   6.89974800  9.18681000  9.33893600
H   5.50916600  11.09720400  5.82328800
H   5.58995500  16.42453600  6.01060600
H   8.06276700  15.87047200  6.11396700
H   8.85817600  13.39754800  5.96094600
H   5.56908000  20.50864800  6.00154200
H   5.50021100  25.83443500  5.83039000