Running on  hostname
Mon Nov  3 09:23:05 AM CET 2025

                                 *****************
                                 * O   R   C   A *
                                 *****************

                                            #,                                       
                                            ###                                      
                                            ####                                     
                                            #####                                    
                                            ######                                   
                                           ########,                                 
                                     ,,################,,,,,                         
                               ,,#################################,,                 
                          ,,##########################################,,             
                       ,#########################################, ''#####,          
                    ,#############################################,,   '####,        
                  ,##################################################,,,,####,       
                ,###########''''           ''''###############################       
              ,#####''   ,,,,##########,,,,          '''####'''          '####       
            ,##' ,,,,###########################,,,                        '##       
           ' ,,###''''                  '''############,,,                           
         ,,##''                                '''############,,,,        ,,,,,,###''
      ,#''                                            '''#######################'''  
     '                                                          ''''####''''         
             ,#######,   #######,   ,#######,      ##                                
            ,#'     '#,  ##    ##  ,#'     '#,    #''#        ,####,    ,#,          
            ##       ##  ##   ,#'  ##            #'  '#       #'       ,# #          
            ##       ##  #######   ##           ,######,      #####,      #          
            '#,     ,#'  ##    ##  '#,     ,#' ,#      #,     #,   #      #          
             '#######'   ##     ##  '#######'  #'      '#     '####' #    #          



                #########################################################
                #                        -***-                          #
                #          Department of theory and spectroscopy        #
                #                                                       #
                #                      Frank Neese                      #
                #                                                       #
                #     Directorship, Architecture, Infrastructure        #
                #                    SHARK, DRIVERS                     #
                #        Core code/Algorithms in most modules           #
                #                                                       #
                #        Max Planck Institute fuer Kohlenforschung      #
                #                Kaiser Wilhelm Platz 1                 #
                #                 D-45470 Muelheim/Ruhr                 #
                #                      Germany                          #
                #                                                       #
                #                  All rights reserved                  #
                #                        -***-                          #
                #########################################################


                         Program Version 6.1.0  -  RELEASE   -
                                (GIT: $679e74b$)
                          ($2025-06-10 18:02:51 +0200$)


 With contributions from (in alphabetic order):
[Max-Planck-Institut fuer Kohlenforschung]                               
  Daniel Aravena         : Magnetic Suceptibility                        
  Michael Atanasov       : Ab Initio Ligand Field Theory (pilot matlab implementation)
  Alexander A. Auer      : GIAO ZORA, VPT2 properties, NMR spectrum      
  Ute Becker             : All parallelization in ORCA, NUMFREQ, NUMCALC 
  Giovanni Bistoni       : ED, misc. LED, open-shell LED, HFLD           
  Dmytro Bykov           : pre 5.0 version of the SCF Hessian            
  Marcos Casanova-Páez   : Triplet and SCS-CIS(D). UHF-(DLPNO)-IP/EA/STEOM-CCSD. UHF-CVS-IP/STEOM-CCSD   
  Vijay G. Chilkuri      : MRCI spin determinant printing, contributions to CSF-ICE 
  Pauline Colinet        : FMM embedding                                 
  Dipayan Datta          : RHF DLPNO-CCSD density                        
  Achintya Kumar Dutta   : EOM-CC, STEOM-CC                              
  Nicolas Foglia         : Exact transition moments, OPA infrastructure, MCD improvements    
  Dmitry Ganyushin       : Spin-Orbit,Spin-Spin,Magnetic field MRCI      
  Miquel Garcia-Rates    : C-PCM and meta-GGA Hessian, CCSD/C-PCM, Gaussian charge scheme 
  Tiago L. C. Gouveia    : GS-ROHF, GS-ROCIS                             
  Yang Guo               : DLPNO-NEVPT2, F12-NEVPT2, CIM, IAO-localization        
  Andreas Hansen         : Spin unrestricted coupled pair/coupled cluster methods 
  Ingolf Harden          : AUTO-CI MPn and infrastructure                
  Benjamin Helmich-Paris : MC-RPA, TRAH-(SCF,CASSCF), AVAS, COSX integrals, SCF dyn. polar., MC-PDFT, srDFT 
  Lee Huntington         : MR-EOM, pCC                                   
  Robert Izsak           : Overlap fitted RIJCOSX, COSX-SCS-MP3, EOM     
  Riya Kayal             : Wick's Theorem for AUTO-CI, AUTO-CI UHF-CCSDT 
  Emily Kempfer          : AUTO-CI RHF CISDT and CCSDT, approximate NEVPT4
  Christian Kollmar      : KDIIS, OOCD, Brueckner-CCSD(T), CCSD density, CASPT2, CASPT2-K, improved NEVPT2 
  Axel Koslowski         : Symmetry handling                             
  Simone Kossmann        : meta-GGA functionals, TD-DFT gradient, OOMP2, (MP2 Hessian; deprecated post 5.0) 
  Lucas Lang             : DCDCAS, Hyperfine gauge corrections, ICE-SOC+SSC
  Marvin Lechner         : AUTO-CI (C++ implementation), FIC-MRCC        
  Spencer Leger          : CASSCF response                               
  Dagmar Lenk            : GEPOL surface, SMD, ORCA-2-JSON               
  Dimitrios Liakos       : Extrapolation schemes; Compound Job, Property file
  Dimitrios Manganas     : Further ROCIS development; embedding schemes. LFT, Crystal Embedding 
  Dimitrios Pantazis     : SARC Basis sets                               
  Anastasios Papadopoulos: AUTO-CI, single reference methods and gradients 
  Taras Petrenko         : pre 6.0 DFT Hessian and TD-DFT gradient,  ECA, NRVS 
  Petra Pikulova         : Analytic Raman intensities                    
  Peter Pinski           : DLPNO-MP2, DLPNO-MP2 Gradient                 
  Shashank Vittal Rao    : ES-AILFT, MagRelax                            
  Christoph Reimann      : Effective Core Potentials                     
  Marius Retegan         : Local ZFS, SOC                                
  Christoph Riplinger    : Optimizer, TS searches, QM/MM, DLPNO-CCSD(T), (RO)-DLPNO pert. Triples 
  Michael Roemelt        : Original ROCIS implementation, recursive CI coupling coefficients
  Masaaki Saitow         : Open-shell DLPNO-CCSD energy and density      
  Barbara Sandhoefer     : DKH picture change effects                    
  Yorick L. A. Schmerwitz: GMF and freeze-and-release deltaSCF, NEB S-IDPP initial path                    
  Kantharuban Sivalingam : CASSCF convergence/infrastructure, NEVPT2, NEVPT3, NEVPT4(SD), FIC-MRCI and CEPA variants
  Bernardo de Souza      : ESD, SOC TD-DFT                               
  Georgi L. Stoychev     : AutoAux, RI-MP2 NMR, DLPNO-MP2 response, X2C  
  Van Anh Tran           : RI-MP2 g-tensors                              
  Willem Van den Heuvel  : Paramagnetic NMR                              
  Zikuan Wang            : NOTCH, Electric field optimization            
  Frank Wennmohs         : Technical directorship and infrastructure     
  Hang Xu                : AUTO-CI-Response properties                   
                                                                         
[FACCTs GmbH]                                                            
  Markus Bursch, Nicolas Foglia, Miquel Garcia-Rates, Ingolf Harden, Hagen Neugebauer, Anastasios Papadopoulos, 
  Christoph Riplinger, Bernardo de Souza, Georgi L. Stoychev                                                    
                                                                 
  APM, various basis sets, CI-OPT, improved COSX, DLPNO-Multilevel,           
  DOCKER, DRACO, updates on ESD, Fragmentator, GOAT, IRC, LR-CPCM, L-BFGS, MBIS, meta-GGA TD-DFT gradient, ML-optimized integration grids, 
  MM, NACMEs, nearIR, NEB, NEB-TS, NL-DFT gradient (VV10), 2- and 3-layer-ONIOM, interface openCOSMO-RS, QMMM,   
  Crystal-QMMM, RESP, rigid body optimization, SF, symmetry and pop. for TD-DFT, various functionals, SOLVATOR                                   
                                                                         
[Other institutions]                                                     
  V. Asgeirsson          : NEB                                           
  Christoph Bannwarth    : sTDA-DFT, sTD-DFT, PBEh-3c, B97-3c, D3        
  Giovanni Bistoni       : ETS/NOCV, ADLD/ADEX, COVALED                  
  Martin Brehm           : Molecular dynamics                            
  Ronald Cardenas        : ETS/NOCV                                      
  Martina Colucci        : COVALED                                       
  Sebastian Ehlert       : rSCAN, r2SCAN, r2SCAN-3c, D4, dhf basis sets  
  Marvin Friede          : D4 for Fr, Ra, Ac-Lr                          
  Lars Goerigk           : TD-DFT with DH, B97 family of functionals     
  Stefan Grimme          : VdW corrections, initial TS optimization, DFT functionals, gCP, sTDA/sTD-DF 
  Waldemar Hujo          : DFT-NL                                        
  H. Jonsson             : NEB                                           
  Holger Kruse           : gCP                                           
  Marcel Mueller         : wB97X-3c, vDZP basis set                      
  Hagen Neugebauer       : wr2SCAN, Native XTB                           
  Gianluca Regni         : ADLD/ADEX                                     
  Tobias Risthaus        : pre 6.0 range-separated hybrid DFT and stability analysis
  Lukas Wittmann         : regularized MP2, r2SCAN double-hybrids, wr2SCAN        
                                                                         
We gratefully acknowledge several colleagues who have allowed us to      
interface, adapt or use parts of their codes:                            
  Ed Valeev, F. Pavosevic, A. Kumar             : LibInt (2-el integral package), F12 methods 
  Garnet Chan, S. Sharma, J. Yang, R. Olivares  : DMRG                   
  Ulf Ekstrom                                   : XCFun DFT Library      
  Mihaly Kallay                                 : mrcc  (arbitrary order and MRCC methods)
  Frank Weinhold                                : gennbo (NPA and NBO analysis)           
  Simon Mueller                                 : openCOSMO-RS                            
  Christopher J. Cramer and Donald G. Truhlar   : smd solvation model                     
  S Lehtola, MJT Oliveira, MAL Marques          : LibXC Library                           
  Liviu Ungur et al                             : ANISO software                          


 Your calculation uses the libint2 library for the computation of 2-el integrals
 For citations please refer to: http://libint.valeyev.net

 Your ORCA version has been built with support for libXC version: 7.0.0
 For citations please refer to: https://libxc.gitlab.io

 This ORCA versions uses:
   CBLAS   interface :  Fast vector & matrix operations
   LAPACKE interface :  Fast linear algebra routines
   SCALAPACK package :  Parallel linear algebra routines
   Shared memory     :  Shared parallel matrices
   BLAS/LAPACK       :  OpenBLAS 0.3.29  USE64BITINT DYNAMIC_ARCH NO_AFFINITY Haswell SINGLE_THREADED
        Core in use  :  Haswell
   Copyright (c) 2011-2014, The OpenBLAS Project


  ***********************************
  * Starting time: Mon Nov  3 09:23:10 2025
  * Host name:     node227.cluster
  * Process ID:    795170
  * Working dir.:  /data/scratch/54423620
  ***********************************

NOTE: MaxCore=2500 MB was set to SCF,MP2,MDCI,CIPSI,MRCI,RASCI and CIS
      => If you want to overwrite this, your respective input block should be placed after the MaxCore statement
Your calculation utilizes the atom-pairwise dispersion correction
with the Becke-Johnson damping scheme (D3BJ)


Warning: RI is on but no J-basis has been assigned. Assigning Def2/J (nothing to worry about!)
================================================================================

----- Orbital basis set information -----
Your calculation utilizes the basis: ma-def2-TZVP
   F. Weigend and R. Ahlrichs, Phys. Chem. Chem. Phys. 7, 3297 (2005).
   J. Zheng, X. Xu and D. G. Truhlar, Theor. Chem. Acc. 128, 295 (2011).

----- AuxJ basis set information -----
Your calculation utilizes the auxiliary basis: def2/J
   H-Rn: F. Weigend, Phys. Chem. Chem. Phys. 8, 1057 (2006).
   Fr-Lr: K. Eichkorn, F. Weigend, O. Treutler, R. Ahlrichs; Theor. Chem. Acc. 97, 119 (1997).

================================================================================
                                        WARNINGS
                       Please study these warnings very carefully!
================================================================================


WARNING: Geometry Optimization
  ===> : Switching off AutoStart
         For restart on a previous wavefunction, please use MOREAD

================================================================================
                                       INPUT FILE
================================================================================
NAME = frame004.inp
|  1> ! PBE0 D3BJ CPCM(water) Opt ma-def2-TZVP
|  2> 
|  3> %pal
|  4>   nprocs 12
|  5> end
|  6> 
|  7> %maxcore 2500
|  8> 
|  9> %scf
| 10>   # A safety mechanism for difficult convergence
| 11>   MaxIter 500  # Increase max iterations from default 125
| 12> end
| 13> 
| 14> %geom
| 15>   Constraints
| 16>     { C 4 C }
| 17>     { C 6 C }
| 18>     { C 15 C }
| 19>     { C 16 C }
| 20>     { C 17 C }
| 21>     { C 25 C }
| 22>     { C 28 C }
| 23>     { C 40 C }
| 24>     { C 41 C }
| 25>     { C 54 C }
| 26>     { C 57 C }
| 27>     { C 59 C }
| 28>     { C 69 C }
| 29>     { C 70 C }
| 30>     { C 73 C }
| 31>     { C 81 C }
| 32>     { C 85 C }
| 33>     { C 88 C }
| 34>   end
| 35> end
| 36> 
| 37> * xyz -1 1
| 38> Si 0.82550257593217324370 16.90273320722593197729 8.02672833413173947292
| 39> Si 3.57859338480791677739 15.40405380123858591901 7.91524250925904127030
| 40> Si 3.61525346730257535199 12.32827187649087719024 7.79142758703267279685
| 41> O  -0.39399255077822026294 16.38822461046508038862 8.97049796486390604855
| 42> O  2.14699992999706257280 16.01900001743099721807 8.38100000417097668048
| 43> O  2.16833122928554988817 11.70013062140357895657 8.17358994479392819699
| 44> O  3.71000007167001122355 13.84500000841872946467 8.38399999194147582671
| 45> O  0.51413263699668299012 16.82449474367642849870 6.43064562732994549066
| 46> O  3.78242852290010045380 15.56381404324821637886 6.30078740340576715084
| 47> O  3.83835818573434295331 12.26151674703057814497 6.17638957683907108276
| 48> Si 0.79040510424433385595 20.03770002575061681682 8.11798344803125893065
| 49> Si 3.61646548976818227317 24.59144274031861954199 7.78977789861681912953
| 50> Si 3.57392350056078011988 21.51644694995027862205 7.91298146577037542215
| 51> O  -0.36656731602421288585 20.60916374128981942704 9.10618692869562806891
| 52> O  2.16894289537017215252 25.21986234456246478430 8.16918535962230052405
| 53> O  2.14699988069201630481 20.90100013460052608139 8.38099999928173744479
| 54> O  1.04500005639581594608 18.45999991309476229162 8.38400004402304332984
| 55> O  3.71000012853857796813 23.07499992836294211429 8.38400000284963731190
| 56> O  0.28796924586518457545 20.17942495992521045878 6.58029562886451202530
| 57> O  3.84322893381362007403 24.65740308455592710857 6.17523017773166227329
| 58> O  3.76807242530934427549 21.35886613296381852933 6.29712045761446059799
| 59> Si 6.22270347680123947498 10.74478962036918616718 7.89204933022558297040
| 60> Si 6.22770124060281737854 16.89731262708091463765 8.01236694334231636105
| 61> Si 8.87567173700767853006 15.40393500063702703073 8.07146739378168831536
| 62> Si 8.88270018401319916279 12.35331725626453902578 7.92738867039414962790
| 63> O  4.81099995473642838562 11.40399997369085127730 8.38100000603758488182
| 64> O  4.84026675495607250355 16.22821144011249216987 8.54553536870812635584
| 65> O  7.53252353847707389889 16.13444972545705979883 8.63606402217489410589
| 66> O  7.47600001234240174597 11.67100002915077006094 8.38099999502641601623
| 67> O  6.39553672208922918685 9.26420228959743141672 8.53484835343576797584
| 68> O  8.97115844084488145427 13.85656772942880721189 8.57903220868726812398
| 69> O  6.19358004044789201004 10.56500296521384107962 6.27778410208354298305
| 70> O  6.34068246647876065936 16.74021435944173674670 6.38952263052003122112
| 71> O  8.84554262976086569381 15.39082822613990941818 6.42808052744114721833
| 72> O  8.99617645023015199968 12.49448485854506429860 6.29922600144553346269
| 73> Si 6.21638856995813604556 20.01550509723665882689 8.00088201115494612736
| 74> Si 6.22275723678031766894 26.17797517431221621109 7.89639692599878628698
| 75> Si 8.88164511786828114737 24.57359634427427508285 7.91870135338080860521
| 76> Si 8.85075366472486813052 21.52825954806273855979 8.03684258953223640276
| 77> O  4.83212175067501803483 20.68555648804234081695 8.53863766773262611309
| 78> O  4.81099990695180856903 25.51600006586557611854 8.38100000560715230336
| 79> O  7.47600003114800326642 25.24899995495525573119 8.38099999916040871994
| 80> O  7.51704994158827233264 20.79206874023099160809 8.61378716020721846292
| 81> O  6.27926975605342541087 18.45840705575357532098 8.45642114177296910782
| 82> O  8.96178716541491837688 23.06765936367511926619 8.56086473838795036784
| 83> O  6.31668640897804767320 20.15996001425322958767 6.37582712210465984981
| 84> O  6.19404507094314027427 26.36676298140993424113 6.28308224197419828982
| 85> O  8.99771841895204715911 24.44641162992245853047 6.28994570220051230081
| 86> O  8.79833289922003025652 21.55854519878435127112 6.39502412529116259776
| 87> O  6.39500684256029661157 27.65560332870917648052 8.54611655696004390848
| 88> Si 11.54077774152416679954 10.90435189835446827544 7.70392439327015932093
| 89> Si 11.54475449219707883231 16.89738995812584576584 7.91695222671572018669
| 90> Si 14.20353637084468800822 15.39713052672892246164 7.87470929568729349768
| 91> Si 14.23581999180372292813 12.29374207158243592630 7.89821818617284954200
| 92> O  10.13999999598393486622 11.40399999305630629465 8.38100000011973911285
| 93> O  10.19474373385992116425 16.23030424532039717178 8.55061143690082481328
| 94> O  12.85059858356323481132 16.10098620334973773538 8.48098099932577653703
| 95> O  12.80500002253731572921 11.67099999600332793648 8.38099999991725752579
| 96> O  11.70002193733166251377 9.30021622874143361059 7.89283361210094369653
| 97> O  14.36799997901236913833 13.84500000983990197767 8.38399999928464900734
| 98> O  11.52647381198964282589 11.21103037703103488809 6.10107396480666430705
| 99> O  11.53153701552002807773 16.72019061437936571224 6.29171038144418570681
|100> O  14.13836303649289227735 15.44005710615545368114 6.24791031476224567598
|101> O  14.36592144806094140108 12.11520262009803516889 6.28747362242113094766
|102> Si 11.52107503628202422874 20.04305292582389697031 7.85872171342033087882
|103> Si 11.54104378852088075291 26.02008587254805149769 7.70790688339140395158
|104> Si 14.23698923467178723001 24.62924594216604745611 7.90140961166662769699
|105> Si 14.21263216877100887814 21.53527643876115860166 7.85646401703449903664
|106> O  10.17156463880786532172 20.69915966337141099984 8.49678378009616075417
|107> O  10.14000000413433788538 25.51600002739957062659 8.38099999952963337080
|108> O  12.80500000817721328872 25.24900001339187838312 8.38100000049916893374
|109> O  12.80499999692396251305 20.90100000135788960165 8.38099999604139966891
|110> O  11.64364372378179623979 18.47899255051916966863 8.30700784340850084675
|111> O  14.36799998271149192419 23.07499998542422758874 8.38399999920001981479
|112> O  11.49649712197253847989 20.16818413957897249134 6.23103187249727330510
|113> O  11.52979969410805693997 25.72254300229674228717 6.10357092888422947397
|114> O  14.36785320404579735509 24.80206541327860492174 6.29032779447289946972
|115> O  14.23459250678166654325 21.46715809764226889911 6.21933351991948857318
|116> O  11.70097777826362772657 27.62284074912019704584 7.90688338919459265952
|117> Si 16.94924847774494836017 16.87134190887242013446 8.04468247064468755525
|118> O  15.47124958785270010253 11.46932691337018539457 8.55583957866140387694
|119> O  15.46900004468921352441 16.28599998823288785843 8.38099998624992537088
|120> O  18.07446201528881246645 16.21289847756226265574 9.01232914163504084115
|121> O  17.32777016776238809825 16.54921091911112185358 6.49330994794046389984
|122> Si 16.79747632488464503808 19.93081093074858145542 7.73267177258625970637
|123> O  15.46900003804426049214 20.63400000932319500180 8.38099998890550423880
|124> O  15.47112709526865437226 25.45236982857439400618 8.56102281009447807492
|125> O  18.11634120208324461032 20.83520173056864521755 8.03021783657841048409
|126> O  17.03200005598074895374 18.45999999186597406720 8.38399995966531541569
|127> O  16.60876853233228089834 19.83038374746892529288 6.12139244418232664202
|128> H  -0.50423259821092791810 15.43969751399377443590 9.08178114813583547971
|129> H  1.69998150257230040694 12.07827983311960551305 8.92297353518659797089
|130> H  0.31527828061650708946 15.96291628495033521062 6.05244511992816747181
|131> H  3.06011690930598234672 15.36094418868561106706 5.69970908498699202482
|132> H  3.18226077271870622099 12.64156661658794078562 5.58570418808917512621
|133> H  -0.12746516364804350019 20.79216845849863304352 10.01911988491213989505
|134> H  1.69595558302505899917 24.83705368204606855898 8.91328417899475944353
|135> H  0.06870204257077539012 21.06154561967952076884 6.26602479528226830041
|136> H  3.18504441411255978522 24.28262459467564227111 5.58349175279577991660
|137> H  3.04237624993629030001 21.56618416971267393478 5.70151829608632443325
|138> H  6.86261732023114845447 9.19605253069470052196 9.37200294390037491610
|139> H  5.50488190518830045050 11.07966287535549199106 5.83436112705043186111
|140> H  5.53947202457606557857 16.40054320403112697591 5.95952170104963929731
|141> H  8.05967269976894229444 15.81862342150630240667 6.04527862532233406512
|142> H  8.86604803572984678794 13.39292817842013860741 5.95934373387287852353
|143> H  5.51369467645339828010 20.50209974537841617348 5.95097614034205157907
|144> H  5.50812286181704546806 25.85154711726521270521 5.83617094395996538481
|145> H  8.84698059953965199043 23.55488087299403332509 5.94014873830957146339
|146> H  8.01534688559716457235 21.12144569787429304597 6.01740514041303953263
|147> H  6.85640193577355461230 27.71938859594808945985 9.38677005634501426812
|148> H  12.07465572226690397883 8.98126917934459889636 8.71867792172002964435
|149> H  10.73932832965028083549 11.69412444867380074243 5.80207311890320731607
|150> H  10.72187988657262458503 16.34829359647998359151 5.91526737116499123914
|151> H  13.31446530444440945473 15.80088676211241605074 5.88887823980789093525
|152> H  13.52713006080233526518 11.98281384201766464059 5.82547799847251557281
|153> H  10.69115572755784171477 20.54020171356208379621 5.84772945189849302494
|154> H  10.74283607646243510203 25.24201418151857012617 5.79986200607187818434
|155> H  13.53075164775363958825 24.94716800289398150881 5.82892497410160892457
|156> H  13.39832301665481395503 21.21040223531084834008 5.80701731882102034632
|157> H  12.07260088926803298648 27.93684519928277509848 8.73599233361593796587
|158> H  15.82850340175322401137 11.79809416492448903568 9.38506512799813563674
|159> H  18.14928358916126072131 15.25438693175016346970 9.00788299891749488779
|160> H  16.62567003197272086368 16.64916104474681901593 5.84290708956944904173
|161> H  15.82415888715189922209 25.12896139250706539769 9.39417316712725458672
|162> H  18.51458375492897090453 20.76863316794991476399 8.90270021237643405243
|163> H  15.82968317482568387788 20.30123647901474726041 5.78901744433530929257
|164> P  13.16992934824593675103 23.78449191037941901072 11.72772002919650091712
|165> O  14.38177301774217298203 19.71556273939622982994 12.67404986109154663154
|166> O  14.05159732344503709101 16.80693677418851805783 11.65252571041732387869
|167> O  14.34297721603649300448 18.33747262031240055080 9.61613596737704767747
|168> O  13.99361715203875711211 22.42184614020920818689 11.92830750680207074765
|169> O  12.68885747903476968190 24.28567044614889880449 13.06843236224712612170
|170> O  11.87836930186983686042 23.42949425231136117986 10.82533524700317428824
|171> O  9.19270155348339201851 22.58007259135702682329 11.93136936618589061254
|172> O  14.06037288499325121904 24.77835535928578281073 11.01536687467829622733
|173> N  12.15479452730022913443 19.50680105501145078506 13.37831452166256163139
|174> N  11.32379198581878299024 21.56289569829426611136 13.67491716745316843173
|175> N  10.49792561522777312177 18.70539528040511356721 11.72468604776005385304
|176> N  8.93197196266102189099 20.40961447525470617848 11.17336104475218760967
|177> N  8.84131590143993051356 18.28835749110885089408 10.16099624294729153462
|178> C  13.17552685843768145446 17.90956083722130287583 11.70555133994148810928
|179> C  13.50696352243472020405 18.91557700296725386124 10.58021795070316706244
|180> C  13.36984563550131532850 18.75500055819817291081 12.99058487559450547622
|181> C  14.21852201423963180105 20.09442906944526896496 11.30727446136700109491
|182> C  13.43094188212613460109 21.40025571691891315140 11.17795987224414844263
|183> C  10.99039007770342202264 19.58807393530742402277 12.62935128478159896304
|184> C  12.27488769877520091711 20.73823949993351334342 14.01512288403381134572
|185> C  10.50500851743263019955 20.88290578519572804339 12.83773429086692807743
|186> C  9.47295517799239128465 21.38885989155116007510 11.98036359950404516894
|187> C  9.43875345595738224347 19.12442037127105720629 11.06915277510958617313
|188> H  12.15198744085960491645 17.51953549040580426777 11.62954068315030298209
|189> H  12.58520618847078509361 19.25319721582186360820 10.08318079086375362863
|190> H  13.72616408286177502873 18.13794473832663456392 13.82478702255231439722
|191> H  15.23486952770809921276 20.22832620647026402594 10.91089449215817097638
|192> H  12.40363785990509448709 21.26177592486091683099 11.54260406897457258424
|193> H  13.37135484349034442175 21.74664592776582949796 10.13370758065715904195
|194> H  14.36355191318110868792 16.68915192992205476230 10.72703503291772264561
|195> H  14.76043091806232787633 19.05830508562619840518 9.08983110421579532101
|196> H  13.15633048288073680965 21.05316071624395135586 14.55860044483365989265
|197> H  8.29981380397230950052 20.69363852697045658147 10.42834343907264837981
|198> H  8.00306516585520100193 18.50481855736981273708 9.63029512846610558086
|199> H  9.33680020589199166636 17.50073618533875219327 9.75776957803941868974
|200> H  11.02100229907733108803 23.28752715166930897794 11.27886579811898570824
|201> *
|202> 
|203>                          ****END OF INPUT****
================================================================================

                       *****************************
                       * Geometry Optimization Run *
                       *****************************

Geometry optimization settings:
Update method            Update   .... BFGS
Choice of coordinates    CoordSys .... (2022) Redundant Internals
Initial Hessian          InHess   .... Almloef's Model
Max. no of cycles        MaxIter  .... 489

Convergence Tolerances:
Energy Change            TolE     ....  5.0000e-06 Eh
Max. Gradient            TolMAXG  ....  3.0000e-04 Eh/bohr
RMS Gradient             TolRMSG  ....  1.0000e-04 Eh/bohr
Max. Displacement        TolMAXD  ....  4.0000e-03 bohr
RMS Displacement         TolRMSD  ....  2.0000e-03 bohr
Strict Convergence                .... False

------------------------------------------------------------------------------
                        ORCA OPTIMIZATION COORDINATE SETUP
------------------------------------------------------------------------------

The optimization will be done in redundant internal coordinates (2022)
Making redundant internal coordinates   ...  (2022 redundants) done
Evaluating the initial hessian          ...  (Almloef) done
Evaluating the coordinates              ...  done
Calculating the B-matrix                .... done
Calculating the G-matrix                .... done
Will constrain atom 4 coordinate 1 
Will constrain atom 4 coordinate 2 
Will constrain atom 4 coordinate 3 
Will constrain atom 6 coordinate 1 
Will constrain atom 6 coordinate 2 
Will constrain atom 6 coordinate 3 
Will constrain atom 15 coordinate 1 
Will constrain atom 15 coordinate 2 
Will constrain atom 15 coordinate 3 
Will constrain atom 16 coordinate 1 
Will constrain atom 16 coordinate 2 
Will constrain atom 16 coordinate 3 
Will constrain atom 17 coordinate 1 
Will constrain atom 17 coordinate 2 
Will constrain atom 17 coordinate 3 
Will constrain atom 25 coordinate 1 
Will constrain atom 25 coordinate 2 
Will constrain atom 25 coordinate 3 
Will constrain atom 28 coordinate 1 
Will constrain atom 28 coordinate 2 
Will constrain atom 28 coordinate 3 
Will constrain atom 40 coordinate 1 
Will constrain atom 40 coordinate 2 
Will constrain atom 40 coordinate 3 
Will constrain atom 41 coordinate 1 
Will constrain atom 41 coordinate 2 
Will constrain atom 41 coordinate 3 
Will constrain atom 54 coordinate 1 
Will constrain atom 54 coordinate 2 
Will constrain atom 54 coordinate 3 
Will constrain atom 57 coordinate 1 
Will constrain atom 57 coordinate 2 
Will constrain atom 57 coordinate 3 
Will constrain atom 59 coordinate 1 
Will constrain atom 59 coordinate 2 
Will constrain atom 59 coordinate 3 
Will constrain atom 69 coordinate 1 
Will constrain atom 69 coordinate 2 
Will constrain atom 69 coordinate 3 
Will constrain atom 70 coordinate 1 
Will constrain atom 70 coordinate 2 
Will constrain atom 70 coordinate 3 
Will constrain atom 73 coordinate 1 
Will constrain atom 73 coordinate 2 
Will constrain atom 73 coordinate 3 
Will constrain atom 81 coordinate 1 
Will constrain atom 81 coordinate 2 
Will constrain atom 81 coordinate 3 
Will constrain atom 85 coordinate 1 
Will constrain atom 85 coordinate 2 
Will constrain atom 85 coordinate 3 
Will constrain atom 88 coordinate 1 
Will constrain atom 88 coordinate 2 
Will constrain atom 88 coordinate 3 
The number of degrees of freedom        ....  955
Storing new coordinates                 .... done

    -----------------------------------------------------------------
                    Redundant Internal Coordinates


    -----------------------------------------------------------------
         Definition                    Initial Value    Approx d2E/dq
    -----------------------------------------------------------------
      1. B(O   3,Si  0)                  1.6256         1.023667   
      2. B(O   4,Si  0)                  1.6288         1.011880   
      3. B(O   4,Si  1)                  1.6262         1.021403   
      4. B(O   5,Si  2)                  1.6230         1.033431   
      5. B(O   6,Si  2)                  1.6311         1.003098   
      6. B(O   6,Si  1)                  1.6333         0.995152   
      7. B(O   7,Si  0)                  1.6281         1.014504   
      8. B(O   8,Si  1)                  1.6351         0.988589   
      9. B(O   9,Si  2)                  1.6317         1.000846   
     10. B(O  13,Si 10)                  1.6253         1.024693   
     11. B(O  14,Si 11)                  1.6230         1.033444   
     12. B(O  15,Si 10)                  1.6294         1.009639   
     13. B(O  15,Si 12)                  1.6229         1.033743   
     14. B(O  16,Si 10)                  1.6201         1.044580   
     15. B(O  16,Si  0)                  1.6127         1.073239   
     16. B(O  17,Si 11)                  1.6314         1.002122   
     17. B(O  17,Si 12)                  1.6338         0.993126   
     18. B(O  18,Si 10)                  1.6239         1.030142   
     19. B(O  19,Si 11)                  1.6317         1.000894   
     20. B(O  20,Si 12)                  1.6351         0.988594   
     21. B(Si 23,Si 22)                  3.0406         0.027455   
     22. B(O  25,Si 21)                  1.6330         0.996398   
     23. B(O  25,Si  2)                  1.6222         1.036371   
     24. B(O  26,Si 22)                  1.6300         1.007224   
     25. B(O  26,Si  1)                  1.6335         0.994398   
     26. B(O  27,Si 22)                  1.6351         0.988609   
     27. B(O  27,Si 23)                  1.6299         1.007759   
     28. B(O  28,Si 24)                  1.6279         1.014993   
     29. B(O  28,Si 21)                  1.6333         0.995107   
     30. B(O  29,Si 21)                  1.6233         1.032254   
     31. B(O  30,Si 24)                  1.6408         0.968086   
     32. B(O  30,Si 23)                  1.6313         1.002531   
     33. B(O  31,Si 21)                  1.6245         1.027800   
     34. B(O  32,Si 22)                  1.6343         0.991335   
     35. B(O  33,Si 23)                  1.6437         0.957775   
     36. B(O  34,Si 24)                  1.6382         0.977357   
     37. B(Si 35,Si 12)                  3.0403         0.027492   
     38. B(Si 38,Si 35)                  3.0380         0.027718   
     39. B(O  39,Si 35)                  1.6292         1.010174   
     40. B(O  39,Si 12)                  1.6324         0.998250   
     41. B(O  40,Si 36)                  1.6328         0.996878   
     42. B(O  40,Si 11)                  1.6221         1.036866   
     43. B(O  41,Si 37)                  1.6266         1.020043   
     44. B(O  41,Si 36)                  1.6335         0.994255   
     45. B(O  42,Si 35)                  1.6341         0.992054   
     46. B(O  42,Si 38)                  1.6290         1.011014   
     47. B(O  43,Si 22)                  1.6238         1.030319   
     48. B(O  43,Si 35)                  1.6236         1.031293   
     49. B(O  44,Si 38)                  1.6299         1.007519   
     50. B(O  44,Si 37)                  1.6391         0.974159   
     51. B(O  45,Si 35)                  1.6345         0.990598   
     52. B(O  46,Si 36)                  1.6246         1.027538   
     53. B(O  47,Si 37)                  1.6378         0.978700   
     54. B(O  48,Si 38)                  1.6429         0.960527   
     55. B(O  49,Si 36)                  1.6233         1.032266   
     56. B(Si 50,Si 24)                  3.0356         0.027967   
     57. B(Si 53,Si 50)                  3.0383         0.027688   
     58. B(O  54,Si 24)                  1.6394         0.972930   
     59. B(O  54,Si 50)                  1.6341         0.992239   
     60. B(O  55,Si 23)                  1.6286         1.012373   
     61. B(O  55,Si 51)                  1.6337         0.993580   
     62. B(O  56,Si 51)                  1.6302         1.006456   
     63. B(O  56,Si 52)                  1.6412         0.966794   
     64. B(O  57,Si 50)                  1.6262         1.021530   
     65. B(O  57,Si 53)                  1.6334         0.994613   
     66. B(O  58,Si 50)                  1.6231         1.033311   
     67. B(O  59,Si 52)                  1.6418         0.964508   
     68. B(O  59,Si 53)                  1.6309         1.003919   
     69. B(O  60,Si 50)                  1.6320         0.999938   
     70. B(O  61,Si 51)                  1.6349         0.989202   
     71. B(O  62,Si 52)                  1.6287         1.012203   
     72. B(O  63,Si 53)                  1.6258         1.022844   
     73. B(Si 65,Si 37)                  3.0347         0.028063   
     74. B(Si 66,Si 65)                  3.0397         0.027545   
     75. B(O  68,Si 38)                  1.6259         1.022620   
     76. B(O  68,Si 64)                  1.6306         1.005140   
     77. B(O  69,Si 37)                  1.6387         0.975624   
     78. B(O  69,Si 65)                  1.6340         0.992436   
     79. B(O  70,Si 65)                  1.6264         1.020637   
     80. B(O  70,Si 66)                  1.6324         0.998466   
     81. B(O  71,Si 67)                  1.6306         1.005032   
     82. B(O  71,Si 64)                  1.6301         1.006802   
     83. B(O  72,Si 51)                  1.6320         0.999934   
     84. B(O  72,Si 64)                  1.6316         1.001196   
     85. B(O  73,Si 66)                  1.6327         0.997295   
     86. B(O  73,Si 67)                  1.6350         0.988984   
     87. B(O  74,Si 64)                  1.6327         0.997409   
     88. B(O  75,Si 65)                  1.6317         1.000877   
     89. B(O  76,Si 66)                  1.6256         1.023681   
     90. B(O  77,Si 67)                  1.6387         0.975606   
     91. B(O  78,Si 65)                  1.6230         1.033665   
     92. B(O  78,O  13)                 14.0091         0.010000   
     93. B(O  80,Si 53)                  1.6243         1.028511   
     94. B(O  81,Si 79)                  1.6269         1.018729   
     95. B(O  81,Si 52)                  1.6272         1.017640   
     96. B(O  82,Si 79)                  1.6236         1.031329   
     97. B(O  83,Si 79)                  1.6290         1.010790   
     98. B(O  85,Si 84)                  1.6370         0.981824   
     99. B(O  85,Si 67)                  1.6328         0.997116   
    100. B(O  86,Si 66)                  1.6235         1.031649   
    101. B(O  87,Si 84)                  1.6266         1.019890   
    102. B(O  88,Si 79)                  1.6266         1.019939   
    103. B(O  88,Si 84)                  1.6256         1.023753   
    104. B(O  89,Si 84)                  1.6254         1.024444   
    105. B(H  90,O   3)                  0.9614         0.517338   
    106. B(H  91,O   5)                  0.9612         0.517651   
    107. B(H  92,O   7)                  0.9617         0.516690   
    108. B(H  93,O   8)                  0.9613         0.517392   
    109. B(H  94,O   9)                  0.9612         0.517763   
    110. B(H  95,O  13)                  0.9613         0.517470   
    111. B(H  96,O  14)                  0.9612         0.517632   
    112. B(H  97,O  18)                  0.9618         0.516606   
    113. B(H  98,O  19)                  0.9612         0.517753   
    114. B(H  99,O  20)                  0.9614         0.517222   
    115. B(H 100,O  29)                  0.9611         0.517935   
    116. B(H 101,O   9)                  2.0715         0.010000   
    117. B(H 101,O  31)                  0.9674         0.506068   
    118. B(H 102,O   8)                  1.9758         0.012454   
    119. B(H 102,O  32)                  0.9707         0.499955   
    120. B(H 103,O  32)                  1.9806         0.012237   
    121. B(H 103,O  33)                  0.9732         0.495326   
    122. B(H 104,O  33)                  2.0523         0.010000   
    123. B(H 104,O  34)                  0.9694         0.502386   
    124. B(H 105,O  20)                  1.9751         0.012486   
    125. B(H 105,O  45)                  0.9707         0.499824   
    126. B(H 106,O  19)                  2.0767         0.010000   
    127. B(H 106,O  46)                  0.9673         0.506200   
    128. B(H 107,O  48)                  2.0481         0.010000   
    129. B(H 107,O  47)                  0.9695         0.502145   
    130. B(H 108,O  45)                  1.9845         0.012061   
    131. B(H 108,O  48)                  0.9730         0.495717   
    132. B(H 109,O  49)                  0.9611         0.517920   
    133. B(H 110,O  58)                  0.9613         0.517480   
    134. B(H 111,O  34)                  1.9815         0.012197   
    135. B(H 111,O  60)                  0.9708         0.499800   
    136. B(H 112,O  33)                  2.1680         0.010000   
    137. B(H 112,O  61)                  0.9672         0.506301   
    138. B(H 113,O  61)                  2.0460         0.010000   
    139. B(H 113,O  62)                  0.9685         0.504050   
    140. B(H 114,O  63)                  0.9667         0.507287   
    141. B(H 114,O  60)                  2.1620         0.010000   
    142. B(H 115,O  74)                  0.9664         0.507909   
    143. B(H 115,O  48)                  2.2180         0.010000   
    144. B(H 116,O  75)                  0.9708         0.499725   
    145. B(H 116,O  47)                  1.9795         0.012284   
    146. B(H 117,O  76)                  0.9668         0.507144   
    147. B(H 117,O  75)                  2.1634         0.010000   
    148. B(H 118,O  77)                  0.9671         0.506577   
    149. B(H 118,O  74)                  2.2097         0.010000   
    150. B(H 119,O  78)                  0.9613         0.517453   
    151. B(H 120,O  80)                  0.9609         0.518236   
    152. B(H 121,O  82)                  0.9614         0.517217   
    153. B(H 122,O  83)                  0.9623         0.515643   
    154. B(H 123,O  86)                  0.9609         0.518205   
    155. B(H 124,O  87)                  0.9614         0.517324   
    156. B(H 125,O  89)                  0.9691         0.502866   
    157. B(H 125,O  77)                  2.0221         0.010507   
    158. B(O 130,P 126)                  1.6048         0.854302   
    159. B(O 131,P 126)                  1.5100         1.210338   
    160. B(O 132,P 126)                  1.6151         0.822784   
    161. B(O 134,P 126)                  1.5126         1.198654   
    162. B(O 134,H 123)                  2.4212         0.010000   
    163. B(C 140,O 128)                  1.4093         0.521319   
    164. B(C 141,O 129)                  1.4009         0.537592   
    165. B(C 141,C 140)                  1.5454         0.353013   
    166. B(C 142,O 127)                  1.4307         0.481902   
    167. B(C 142,N 135)                  1.4805         0.401314   
    168. B(C 142,C 140)                  1.5504         0.346561   
    169. B(C 143,O 127)                  1.4277         0.487261   
    170. B(C 143,C 141)                  1.5571         0.338151   
    171. B(C 144,O 130)                  1.3868         0.566171   
    172. B(C 144,C 143)                  1.5304         0.372998   
    173. B(C 145,N 135)                  1.3869         0.566083   
    174. B(C 145,N 137)                  1.3565         0.632908   
    175. B(C 146,N 135)                  1.3915         0.556437   
    176. B(C 146,N 136)                  1.3040         0.767546   
    177. B(C 147,N 136)                  1.3541         0.638416   
    178. B(C 147,C 145)                  1.3984         0.605742   
    179. B(C 148,O 133)                  1.2247         1.027011   
    180. B(C 148,N 138)                  1.3794         0.581746   
    181. B(C 148,C 147)                  1.4339         0.531645   
    182. B(C 149,N 137)                  1.3142         0.739250   
    183. B(C 149,N 138)                  1.3854         0.569075   
    184. B(C 149,N 139)                  1.3714         0.599216   
    185. B(H 150,C 140)                  1.0980         0.349714   
    186. B(H 151,C 141)                  1.1003         0.346723   
    187. B(H 151,O  72)                  2.1542         0.010000   
    188. B(H 151,O  71)                  2.3793         0.010000   
    189. B(H 151,O 129)                  2.0363         0.010000   
    190. B(H 152,C 142)                  1.0971         0.350838   
    191. B(H 153,C 143)                  1.0991         0.348268   
    192. B(H 154,C 144)                  1.0989         0.348567   
    193. B(H 155,C 144)                  1.1018         0.344803   
    194. B(H 155,O  71)                  2.0268         0.010327   
    195. B(H 155,O  73)                  2.4123         0.010000   
    196. B(H 155,P 126)                  2.5950         0.010000   
    197. B(H 155,O 130)                  2.0159         0.010750   
    198. B(H 155,O 132)                  2.3536         0.010000   
    199. B(H 156,O 128)                  0.9837         0.476551   
    200. B(H 156,O 129)                  1.9878         0.011916   
    201. B(H 157,O 129)                  0.9853         0.473766   
    202. B(H 157,O  85)                  1.8674         0.018544   
    203. B(H 158,C 146)                  1.0824         0.370362   
    204. B(H 159,N 138)                  1.0175         0.420919   
    205. B(H 159,O  42)                  1.9786         0.012325   
    206. B(H 160,N 139)                  1.0155         0.424112   
    207. B(H 160,O  43)                  2.0861         0.010000   
    208. B(H 161,N 139)                  1.0141         0.426205   
    209. B(H 161,O  55)                  1.9512         0.013631   
    210. B(H 161,O  13)                 10.2099         0.010000   
    211. B(H 161,O  78)                 10.5580         0.010000   
    212. B(H 162,O 132)                  0.9803         0.482650   
    213. B(H 162,O 133)                  2.0661         0.010000   
    214. B(H 162,P 126)                  2.2509         0.017016   
    215. A(O   4,Si  0,O   7)          110.0194         0.605426   
    216. A(O   3,Si  0,O  16)          106.2068         0.613420   
    217. A(O   3,Si  0,O   4)          108.0986         0.606478   
    218. A(O   4,Si  0,O  16)          111.4265         0.612047   
    219. A(O   3,Si  0,O   7)          114.2351         0.606782   
    220. A(O   7,Si  0,O  16)          106.8350         0.612353   
    221. A(O   4,Si  1,O  26)          112.2496         0.604183   
    222. A(O   4,Si  1,O   6)          110.4620         0.604271   
    223. A(O   6,Si  1,O  26)          107.9821         0.601156   
    224. A(O   6,Si  1,O   8)          111.5070         0.600477   
    225. A(O   4,Si  1,O   8)          110.8295         0.603500   
    226. A(O   8,Si  1,O  26)          103.6152         0.600389   
    227. A(O   5,Si  2,O   9)          109.8229         0.606306   
    228. A(O   6,Si  2,O   9)          112.9340         0.602829   
    229. A(O   5,Si  2,O  25)          110.5509         0.610406   
    230. A(O   5,Si  2,O   6)          109.0334         0.606569   
    231. A(O   9,Si  2,O  25)          103.6281         0.606639   
    232. A(O   6,Si  2,O  25)          110.7899         0.606902   
    233. A(Si  0,O   3,H  90)          117.7425         0.436170   
    234. A(Si  0,O   4,Si  1)          148.9965         0.606219   
    235. A(Si  2,O   5,H  91)          117.7555         0.436964   
    236. A(Si  1,O   6,Si  2)          141.1380         0.602166   
    237. A(Si  0,O   7,H  92)          117.9131         0.435366   
    238. A(Si  1,O   8,H  93)          120.2033         0.433449   
    239. A(Si  2,O   9,H  94)          119.9180         0.434467   
    240. A(O  13,Si 10,O  15)          107.9529         0.606336   
    241. A(O  15,Si 10,O  18)          111.3596         0.606957   
    242. A(O  16,Si 10,O  18)          106.8038         0.610961   
    243. A(O  15,Si 10,O  16)          111.0160         0.608592   
    244. A(O  13,Si 10,O  16)          110.7584         0.610335   
    245. A(O  13,Si 10,O  18)          108.9532         0.608695   
    246. A(O  14,Si 11,O  40)          110.5417         0.610464   
    247. A(O  14,Si 11,O  17)          109.0199         0.606457   
    248. A(O  14,Si 11,O  19)          109.8524         0.606313   
    249. A(O  17,Si 11,O  40)          110.7830         0.606844   
    250. A(O  19,Si 11,O  40)          103.6069         0.606700   
    251. A(O  17,Si 11,O  19)          112.9554         0.602722   
    252. A(O  17,Si 12,O  39)          108.1102         0.601368   
    253. A(O  20,Si 12,O  39)          103.7794         0.600837   
    254. A(Si 35,Si 12,O  39)           21.2104         0.336759   
    255. A(O  15,Si 12,O  39)          111.9696         0.606037   
    256. A(O  17,Si 12,Si 35)          112.9678         0.336471   
    257. A(O  15,Si 12,O  20)          110.6609         0.604901   
    258. A(O  15,Si 12,Si 35)          124.6548         0.338726   
    259. A(O  17,Si 12,O  20)          111.5270         0.600242   
    260. A(O  20,Si 12,Si 35)           82.9804         0.336215   
    261. A(O  15,Si 12,O  17)          110.5995         0.605435   
    262. A(Si 10,O  13,H  95)          117.8584         0.436269   
    263. A(Si 11,O  14,H  96)          117.7508         0.436962   
    264. A(Si 10,O  15,Si 12)          152.4254         0.607367   
    265. A(Si  0,O  16,Si 10)          151.9545         0.615826   
    266. A(Si 11,O  17,Si 12)          140.9793         0.601817   
    267. A(Si 10,O  18,H  97)          117.3877         0.436554   
    268. A(Si 11,O  19,H  98)          119.8838         0.434469   
    269. A(Si 12,O  20,H  99)          120.1191         0.433424   
    270. A(O  25,Si 21,O  29)          109.9787         0.605651   
    271. A(O  28,Si 21,O  29)          108.4801         0.605500   
    272. A(O  29,Si 21,O  31)          107.1244         0.609293   
    273. A(O  25,Si 21,O  28)          110.1701         0.601383   
    274. A(O  28,Si 21,O  31)          111.9620         0.604995   
    275. A(O  25,Si 21,O  31)          109.0697         0.605146   
    276. A(O  26,Si 22,O  27)          111.2826         0.601877   
    277. A(Si 23,Si 22,O  27)           21.3271         0.336140   
    278. A(Si 23,Si 22,O  43)          116.0523         0.338462   
    279. A(O  27,Si 22,O  32)          106.1855         0.600035   
    280. A(O  26,Si 22,O  43)          109.4030         0.606697   
    281. A(O  32,Si 22,O  43)          111.2077         0.604837   
    282. A(O  27,Si 22,O  43)          108.5950         0.604516   
    283. A(Si 23,Si 22,O  26)          122.2284         0.337186   
    284. A(O  26,Si 22,O  32)          110.1316         0.602197   
    285. A(Si 23,Si 22,O  32)           84.9450         0.336294   
    286. A(Si 22,Si 23,O  33)           88.1961         0.334374   
    287. A(O  27,Si 23,O  33)          109.5607         0.598273   
    288. A(O  33,Si 23,O  55)          108.2422         0.598800   
    289. A(Si 22,Si 23,O  27)           21.3988         0.337215   
    290. A(Si 22,Si 23,O  30)          121.5269         0.336923   
    291. A(O  27,Si 23,O  55)          109.7622         0.604704   
    292. A(Si 22,Si 23,O  55)          117.5066         0.337472   
    293. A(O  27,Si 23,O  30)          111.4447         0.603565   
    294. A(O  30,Si 23,O  55)          110.0203         0.604097   
    295. A(O  30,Si 23,O  33)          107.7336         0.597674   
    296. A(O  28,Si 24,O  30)          108.6581         0.600336   
    297. A(Si 50,Si 24,O  54)           21.9425         0.336281   
    298. A(O  28,Si 24,Si 50)          125.2465         0.338661   
    299. A(O  34,Si 24,Si 50)           84.6819         0.336535   
    300. A(O  30,Si 24,O  54)          112.2888         0.595461   
    301. A(O  28,Si 24,O  54)          110.0533         0.600914   
    302. A(O  28,Si 24,O  34)          111.8952         0.601440   
    303. A(O  34,Si 24,O  54)          105.7693         0.596555   
    304. A(O  30,Si 24,O  34)          108.1818         0.595982   
    305. A(O  30,Si 24,Si 50)          114.7929         0.336001   
    306. A(Si  2,O  25,Si 21)          139.3238         0.606117   
    307. A(Si  1,O  26,Si 22)          137.5889         0.602555   
    308. A(Si 22,O  27,Si 23)          137.2741         0.601939   
    309. A(Si 21,O  28,Si 24)          144.8182         0.603532   
    310. A(Si 21,O  29,H 100)          117.4739         0.436918   
    311. A(Si 23,O  30,Si 24)          137.9288         0.598908   
    312. A(Si 21,O  31,H 101)          114.1655         0.434759   
    313. A(Si 22,O  32,H 102)          114.6107         0.431001   
    314. A(Si 23,O  33,H 103)          113.8634         0.427632   
    315. A(Si 24,O  34,H 104)          114.7744         0.430278   
    316. A(Si 12,Si 35,Si 38)          120.5432         0.208889   
    317. A(Si 38,Si 35,O  43)          116.1450         0.339056   
    318. A(Si 38,Si 35,O  42)           21.3710         0.336870   
    319. A(Si 12,Si 35,O  42)          117.9062         0.336410   
    320. A(O  39,Si 35,O  42)          110.9176         0.602621   
    321. A(Si 12,Si 35,O  43)          121.0139         0.338592   
    322. A(O  39,Si 35,O  43)          109.5560         0.607150   
    323. A(O  42,Si 35,O  43)          108.6443         0.605032   
    324. A(Si 12,Si 35,O  45)           88.9089         0.336328   
    325. A(Si 38,Si 35,O  45)           85.0983         0.336788   
    326. A(O  39,Si 35,O  45)          110.1173         0.602450   
    327. A(O  42,Si 35,O  45)          106.3825         0.600351   
    328. A(O  43,Si 35,O  45)          111.1818         0.604860   
    329. A(Si 38,Si 35,O  39)          121.8747         0.337888   
    330. A(Si 12,Si 35,O  39)           21.2545         0.337426   
    331. A(O  40,Si 36,O  46)          109.0603         0.605172   
    332. A(O  41,Si 36,O  46)          111.9778         0.604865   
    333. A(O  40,Si 36,O  41)          110.1650         0.601340   
    334. A(O  40,Si 36,O  49)          109.9980         0.605709   
    335. A(O  46,Si 36,O  49)          107.0714         0.609264   
    336. A(O  41,Si 36,O  49)          108.5122         0.605401   
    337. A(Si 65,Si 37,O  69)           21.9559         0.336627   
    338. A(O  44,Si 37,O  47)          108.3485         0.596858   
    339. A(O  41,Si 37,O  44)          108.2040         0.601636   
    340. A(O  41,Si 37,O  47)          112.0942         0.602176   
    341. A(O  47,Si 37,Si 65)           84.5965         0.336803   
    342. A(O  47,Si 37,O  69)          105.7112         0.597030   
    343. A(O  41,Si 37,O  69)          110.1589         0.601810   
    344. A(O  41,Si 37,Si 65)          125.3897         0.339135   
    345. A(O  44,Si 37,Si 65)          114.9798         0.336543   
    346. A(O  44,Si 37,O  69)          112.3524         0.596496   
    347. A(Si 35,Si 38,O  68)          116.9914         0.338579   
    348. A(O  42,Si 38,O  68)          109.5397         0.606258   
    349. A(O  44,Si 38,O  68)          109.5924         0.605853   
    350. A(O  48,Si 38,O  68)          108.5429         0.600295   
    351. A(Si 35,Si 38,O  42)           21.4419         0.337935   
    352. A(Si 35,Si 38,O  44)          122.2191         0.337740   
    353. A(O  42,Si 38,O  44)          111.6377         0.604519   
    354. A(Si 35,Si 38,O  48)           88.2627         0.335065   
    355. A(O  42,Si 38,O  48)          109.6419         0.598976   
    356. A(O  44,Si 38,O  48)          107.8210         0.598577   
    357. A(Si 12,O  39,Si 35)          137.5351         0.603345   
    358. A(Si 11,O  40,Si 36)          139.4296         0.606229   
    359. A(Si 36,O  41,Si 37)          144.5690         0.604011   
    360. A(Si 35,O  42,H 159)          129.4343         0.236950   
    361. A(Si 38,O  42,H 159)           91.3402         0.237586   
    362. A(Si 35,O  42,Si 38)          137.1871         0.602717   
    363. A(Si 22,O  43,H 160)          101.6255         0.225474   
    364. A(Si 35,O  43,H 160)           99.7038         0.225503   
    365. A(Si 22,O  43,Si 35)          147.5687         0.609471   
    366. A(Si 37,O  44,Si 38)          137.5988         0.600205   
    367. A(Si 35,O  45,H 105)          114.5510         0.430923   
    368. A(Si 36,O  46,H 106)          114.1705         0.434759   
    369. A(Si 37,O  47,H 107)          114.7839         0.430347   
    370. A(Si 38,O  48,H 108)          113.9056         0.427913   
    371. A(Si 36,O  49,H 109)          117.4805         0.436916   
    372. A(Si 24,Si 50,O  57)          115.1543         0.339024   
    373. A(O  54,Si 50,O  57)          110.4723         0.603944   
    374. A(Si 24,Si 50,O  58)          123.3058         0.339674   
    375. A(Si 53,Si 50,O  58)          110.9460         0.339105   
    376. A(O  54,Si 50,O  58)          109.7600         0.605282   
    377. A(O  57,Si 50,O  58)          109.9507         0.608693   
    378. A(Si 24,Si 50,O  60)           88.5633         0.337818   
    379. A(Si 53,Si 50,O  60)           89.1204         0.337253   
    380. A(O  54,Si 50,O  60)          109.9972         0.601460   
    381. A(O  57,Si 50,O  60)          109.0958         0.604845   
    382. A(O  58,Si 50,O  60)          107.5117         0.606186   
    383. A(Si 24,Si 50,Si 53)          123.6227         0.209325   
    384. A(Si 53,Si 50,O  57)           21.2834         0.338457   
    385. A(Si 24,Si 50,O  54)           22.0180         0.337383   
    386. A(Si 53,Si 50,O  54)          126.4449         0.336819   
    387. A(O  55,Si 51,O  56)          109.1625         0.602371   
    388. A(O  55,Si 51,O  61)          109.5499         0.600366   
    389. A(O  56,Si 51,O  61)          107.3052         0.601858   
    390. A(O  55,Si 51,O  72)          110.6761         0.601616   
    391. A(O  56,Si 51,O  72)          110.0118         0.603112   
    392. A(O  61,Si 51,O  72)          110.0669         0.601104   
    393. A(O  56,Si 52,O  59)          111.9277         0.594313   
    394. A(O  56,Si 52,O  62)          108.9473         0.599863   
    395. A(O  59,Si 52,O  62)          109.8020         0.599590   
    396. A(O  56,Si 52,O  81)          106.9714         0.600483   
    397. A(O  59,Si 52,O  81)          109.9986         0.600209   
    398. A(O  62,Si 52,O  81)          109.1174         0.605824   
    399. A(Si 50,Si 53,O  57)           21.1841         0.336953   
    400. A(Si 50,Si 53,O  59)          121.7284         0.337477   
    401. A(O  57,Si 53,O  59)          110.2175         0.602199   
    402. A(Si 50,Si 53,O  63)           87.5590         0.338529   
    403. A(O  57,Si 53,O  63)          108.7264         0.604372   
    404. A(O  59,Si 53,O  63)          113.1453         0.605460   
    405. A(Si 50,Si 53,O  80)          117.9334         0.338841   
    406. A(O  57,Si 53,O  80)          110.6756         0.605017   
    407. A(O  59,Si 53,O  80)          107.4891         0.606106   
    408. A(O  63,Si 53,O  80)          106.5293         0.608296   
    409. A(Si 24,O  54,Si 50)          136.0395         0.598294   
    410. A(Si 51,O  55,H 161)          109.7208         0.240414   
    411. A(Si 23,O  55,H 161)           98.9898         0.241058   
    412. A(Si 23,O  55,Si 51)          139.6719         0.603053   
    413. A(Si 51,O  56,Si 52)          137.9064         0.599205   
    414. A(Si 50,O  57,Si 53)          137.5326         0.604222   
    415. A(Si 50,O  58,H 110)          117.7845         0.436929   
    416. A(Si 52,O  59,Si 53)          143.0056         0.598641   
    417. A(Si 50,O  60,H 111)          113.7740         0.431647   
    418. A(Si 51,O  61,H 112)          115.8060         0.431812   
    419. A(Si 52,O  62,H 113)          114.4666         0.433253   
    420. A(Si 53,O  63,H 114)          114.7763         0.434569   
    421. A(O  68,Si 64,O  71)          108.3434         0.603757   
    422. A(O  68,Si 64,O  72)          109.8995         0.603107   
    423. A(O  71,Si 64,O  72)          110.9354         0.603299   
    424. A(O  68,Si 64,O  74)          110.2928         0.602666   
    425. A(O  71,Si 64,O  74)          106.9138         0.602858   
    426. A(O  72,Si 64,O  74)          110.3958         0.602209   
    427. A(Si 37,Si 65,Si 66)          123.6908         0.209277   
    428. A(Si 37,Si 65,O  69)           22.0216         0.337586   
    429. A(Si 66,Si 65,O  69)          126.3749         0.336539   
    430. A(Si 37,Si 65,O  70)          115.2338         0.339168   
    431. A(Si 66,Si 65,O  70)           21.1686         0.338114   
    432. A(O  69,Si 65,O  70)          110.4630         0.603865   
    433. A(Si 37,Si 65,O  75)           88.5869         0.338063   
    434. A(Si 66,Si 65,O  75)           89.1558         0.337014   
    435. A(O  69,Si 65,O  75)          110.0502         0.601592   
    436. A(O  70,Si 65,O  75)          109.0145         0.604853   
    437. A(Si 37,Si 65,O  78)          123.2686         0.339887   
    438. A(Si 66,Si 65,O  78)          110.8948         0.338830   
    439. A(O  69,Si 65,O  78)          109.7942         0.605345   
    440. A(O  70,Si 65,O  78)          109.9304         0.608630   
    441. A(O  75,Si 65,O  78)          107.5357         0.606336   
    442. A(Si 65,Si 66,O  70)           21.0874         0.336879   
    443. A(Si 65,Si 66,O  73)          121.7050         0.336813   
    444. A(O  70,Si 66,O  73)          110.1798         0.601879   
    445. A(Si 65,Si 66,O  76)           87.6884         0.338282   
    446. A(O  70,Si 66,O  76)          108.7494         0.604919   
    447. A(O  73,Si 66,O  76)          112.8102         0.604782   
    448. A(Si 65,Si 66,O  86)          117.9098         0.338720   
    449. A(O  70,Si 66,O  86)          110.7931         0.605825   
    450. A(O  73,Si 66,O  86)          107.5510         0.605688   
    451. A(O  76,Si 66,O  86)          106.7124         0.608751   
    452. A(O  71,Si 67,O  73)          110.1549         0.601668   
    453. A(O  71,Si 67,O  77)          108.4679         0.600090   
    454. A(O  73,Si 67,O  77)          111.1137         0.598232   
    455. A(O  71,Si 67,O  85)          110.2548         0.602619   
    456. A(O  73,Si 67,O  85)          110.0633         0.600751   
    457. A(O  77,Si 67,O  85)          106.7199         0.599176   
    458. A(Si 38,O  68,Si 64)          140.0698         0.605576   
    459. A(Si 37,O  69,Si 65)          136.0225         0.598636   
    460. A(Si 65,O  70,Si 66)          137.7440         0.604571   
    461. A(Si 64,O  71,H 151)           77.9921         0.195388   
    462. A(Si 64,O  71,H 155)          135.7867         0.231620   
    463. A(Si 67,O  71,H 155)           82.7996         0.231564   
    464. A(Si 64,O  71,Si 67)          141.4056         0.603744   
    465. A(Si 67,O  71,H 151)          125.3998         0.195346   
    466. A(H 151,O  71,H 155)           72.3081         0.118465   
    467. A(Si 51,O  72,H 151)          124.8784         0.217081   
    468. A(Si 64,O  72,H 151)           85.1159         0.217118   
    469. A(Si 51,O  72,Si 64)          149.1782         0.602503   
    470. A(Si 66,O  73,H 155)          134.8641         0.192283   
    471. A(Si 67,O  73,H 155)           71.1070         0.192088   
    472. A(Si 66,O  73,Si 67)          142.5123         0.600772   
    473. A(Si 64,O  74,H 115)          115.9428         0.432700   
    474. A(Si 65,O  75,H 116)          113.7931         0.431708   
    475. A(Si 66,O  76,H 117)          114.7867         0.434611   
    476. A(Si 67,O  77,H 118)          115.1751         0.430782   
    477. A(Si 65,O  78,H 119)          117.8015         0.436952   
    478. A(O  81,Si 79,O  82)          111.1893         0.608144   
    479. A(O  81,Si 79,O  83)          109.7020         0.605786   
    480. A(O  82,Si 79,O  83)          109.0474         0.607226   
    481. A(O  81,Si 79,O  88)          110.7664         0.606841   
    482. A(O  82,Si 79,O  88)          103.6804         0.608284   
    483. A(O  83,Si 79,O  88)          112.3317         0.605925   
    484. A(Si 53,O  80,H 120)          117.2906         0.436677   
    485. A(Si 52,O  81,Si 79)          147.1182         0.606577   
    486. A(Si 79,O  82,H 121)          117.0969         0.436738   
    487. A(Si 79,O  83,H 122)          116.9751         0.434920   
    488. A(O  85,Si 84,O  87)          110.2869         0.602529   
    489. A(O  85,Si 84,O  88)          110.3078         0.602968   
    490. A(O  87,Si 84,O  88)          108.2276         0.607412   
    491. A(O  85,Si 84,O  89)          108.9617         0.603047   
    492. A(O  87,Si 84,O  89)          108.0485         0.607492   
    493. A(O  88,Si 84,O  89)          110.9799         0.607935   
    494. A(Si 67,O  85,H 157)          107.2017         0.251470   
    495. A(Si 84,O  85,H 157)           95.4975         0.250902   
    496. A(Si 67,O  85,Si 84)          137.2525         0.599911   
    497. A(Si 66,O  86,H 123)          117.4460         0.436913   
    498. A(Si 84,O  87,H 124)          117.6053         0.435877   
    499. A(Si 79,O  88,Si 84)          142.4446         0.607418   
    500. A(Si 84,O  89,H 125)          113.7853         0.434007   
    501. A(O  86,H 123,O 134)          111.2019         0.158035   
    502. A(O 130,P 126,O 131)          109.5334         0.590299   
    503. A(O 130,P 126,O 132)          107.0765         0.548365   
    504. A(O 131,P 126,O 132)          108.3165         0.586052   
    505. A(O 130,P 126,O 134)          108.3371         0.589200   
    506. A(O 131,P 126,O 134)          112.8054         0.630236   
    507. A(O 132,P 126,O 134)          110.6126         0.584962   
    508. A(C 142,O 127,C 143)          108.0051         0.392581   
    509. A(C 140,O 128,H 156)          109.0388         0.354019   
    510. A(C 141,O 129,H 157)          108.5738         0.355515   
    511. A(P 126,O 130,C 144)          110.4631         0.477474   
    512. A(P 126,O 132,H 162)          118.2139         0.409211   
    513. A(H 123,O 134,P 126)          147.0668         0.194219   
    514. A(C 142,N 135,C 145)          125.2668         0.390318   
    515. A(C 142,N 135,C 146)          119.8939         0.389149   
    516. A(C 145,N 135,C 146)          105.5297         0.413452   
    517. A(C 146,N 136,C 147)          106.5438         0.447581   
    518. A(C 145,N 137,C 149)          114.6944         0.443848   
    519. A(C 148,N 138,C 149)          123.9920         0.417126   
    520. A(C 148,N 138,H 159)          118.2842         0.353153   
    521. A(C 149,N 138,H 159)          115.5389         0.351839   
    522. A(C 149,N 139,H 160)          125.1525         0.355383   
    523. A(C 149,N 139,H 161)          121.5972         0.355680   
    524. A(H 160,N 139,H 161)          111.1663         0.301557   
    525. A(O 128,C 140,C 141)          110.4017         0.378675   
    526. A(O 128,C 140,C 142)          112.3281         0.377468   
    527. A(C 141,C 140,C 142)          102.8078         0.355296   
    528. A(O 128,C 140,H 150)          107.3957         0.339005   
    529. A(C 141,C 140,H 150)          112.3806         0.319789   
    530. A(C 142,C 140,H 150)          111.5872         0.318827   
    531. A(O 129,C 141,C 140)          111.1291         0.380697   
    532. A(O 129,C 141,C 143)          111.1640         0.377871   
    533. A(C 140,C 141,C 143)          104.5268         0.353819   
    534. A(O 129,C 141,H 151)          108.4017         0.340261   
    535. A(C 140,C 141,H 151)          110.4273         0.319341   
    536. A(C 143,C 141,H 151)          111.1886         0.317109   
    537. A(O 127,C 142,N 135)          107.3068         0.379536   
    538. A(O 127,C 142,C 140)          105.7465         0.372380   
    539. A(N 135,C 142,C 140)          113.0230         0.360883   
    540. A(O 127,C 142,H 152)          108.4294         0.334774   
    541. A(N 135,C 142,H 152)          110.6725         0.324802   
    542. A(C 140,C 142,H 152)          111.3598         0.318994   
    543. A(O 127,C 143,C 141)          107.3587         0.371515   
    544. A(O 127,C 143,C 144)          111.4793         0.377857   
    545. A(C 141,C 143,C 144)          111.7990         0.357141   
    546. A(O 127,C 143,H 153)          105.7743         0.334980   
    547. A(C 141,C 143,H 153)          110.2676         0.317339   
    548. A(C 144,C 143,H 153)          109.9655         0.322464   
    549. A(O 130,C 144,C 143)          111.9640         0.387839   
    550. A(O 130,C 144,H 154)          107.0136         0.343530   
    551. A(C 143,C 144,H 154)          110.2147         0.322510   
    552. A(O 130,C 144,H 155)          107.6466         0.342905   
    553. A(C 143,C 144,H 155)          112.0958         0.321937   
    554. A(H 154,C 144,H 155)          107.6716         0.287399   
    555. A(N 135,C 145,N 137)          128.8173         0.423047   
    556. A(N 135,C 145,C 147)          105.3790         0.422491   
    557. A(N 137,C 145,C 147)          125.1607         0.431021   
    558. A(N 135,C 146,N 136)          112.1671         0.436598   
    559. A(N 135,C 146,H 158)          123.8868         0.346037   
    560. A(N 136,C 146,H 158)          122.7506         0.365447   
    561. A(N 136,C 147,C 145)          110.3170         0.431692   
    562. A(N 136,C 147,C 148)          128.8777         0.421720   
    563. A(C 145,C 147,C 148)          119.1709         0.420515   
    564. A(O 133,C 148,N 138)          125.2625         0.464037   
    565. A(O 133,C 148,C 147)          122.1274         0.459519   
    566. A(N 138,C 148,C 147)          112.4313         0.414792   
    567. A(N 137,C 149,N 138)          123.5773         0.435412   
    568. A(N 137,C 149,N 139)          119.1463         0.439482   
    569. A(N 138,C 149,N 139)          117.1291         0.419331   
    570. A(O  72,H 151,C 141)          128.9267         0.168627   
    571. A(O  71,H 151,C 141)          117.2770         0.155038   
    572. A(O  71,H 151,O  72)           72.5070         0.115503   
    573. A(O  71,H 155,C 144)          134.7112         0.177417   
    574. A(O  73,H 155,C 144)          146.9503         0.153167   
    575. A(O  71,H 155,O  73)           73.6182         0.117667   
    576. A(O  85,H 157,O 129)          168.7486         0.196206   
    577. A(O  42,H 159,N 138)          158.6128         0.184156   
    578. A(O  43,H 160,N 139)          166.2846         0.176175   
    579. A(O  55,H 161,N 139)          165.1254         0.186625   
    580. D(H  90,O   3,Si  0,O   4)    -43.3164         0.013398   
    581. D(H  90,O   3,Si  0,O   7)     79.5094         0.013398   
    582. D(Si  1,O   4,Si  0,O   3)    154.1794         0.013108   
    583. D(Si  1,O   4,Si  0,O   7)     28.8203         0.013108   
    584. D(Si  0,O   4,Si  1,O   6)   -135.8008         0.013342   
    585. D(Si  0,O   4,Si  1,O   8)    -11.7017         0.013342   
    586. D(H  91,O   5,Si  2,O   6)    -22.5473         0.013642   
    587. D(H  91,O   5,Si  2,O   9)   -146.7779         0.013642   
    588. D(Si  2,O   6,Si  1,O   4)    103.0091         0.012702   
    589. D(Si  2,O   6,Si  1,O   8)    -20.6996         0.012702   
    590. D(Si  1,O   6,Si  2,O   5)   -100.8198         0.012894   
    591. D(Si  1,O   6,Si  2,O   9)     21.5566         0.012894   
    592. D(H  92,O   7,Si  0,O   3)    -60.0311         0.013172   
    593. D(H  92,O   7,Si  0,O   4)     61.7450         0.013172   
    594. D(H  93,O   8,Si  1,O   4)    -43.9598         0.013560   
    595. D(H  93,O   8,Si  1,O   6)     79.5406         0.013560   
    596. D(H  94,O   9,Si  2,O   5)     53.9409         0.013881   
    597. D(H  94,O   9,Si  2,O   6)    -67.9927         0.013881   
    598. D(H  95,O  13,Si 10,O  15)    -43.9722         0.015549   
    599. D(H  95,O  13,Si 10,O  16)     77.7611         0.015549   
    600. D(H  96,O  14,Si 11,O  17)     22.0094         0.013643   
    601. D(H  96,O  14,Si 11,O  19)    146.2774         0.013643   
    602. D(Si 12,O  15,Si 10,O  13)   -153.6596         0.013053   
    603. D(Si 12,O  15,Si 10,O  16)     84.7665         0.013053   
    604. D(Si 10,O  15,Si 12,O  17)    135.5714         0.014766   
    605. D(Si 10,O  15,Si 12,O  20)     11.4684         0.014766   
    606. D(Si  0,O  16,Si 10,O  15)   -141.6463         0.013924   
    607. D(Si 10,O  16,Si  0,O   4)    147.5131         0.014665   
    608. D(Si 10,O  16,Si  0,O   3)    -94.9971         0.014665   
    609. D(Si  0,O  16,Si 10,O  13)     98.4369         0.013924   
    610. D(Si 12,O  17,Si 11,O  14)    100.5777         0.012870   
    611. D(Si 12,O  17,Si 11,O  19)    -21.8415         0.012870   
    612. D(Si 11,O  17,Si 12,O  15)   -103.1205         0.013678   
    613. D(Si 11,O  17,Si 12,O  20)     20.4844         0.013678   
    614. D(H  97,O  18,Si 10,O  13)     58.7616         0.013560   
    615. D(H  97,O  18,Si 10,O  15)    -60.2014         0.013560   
    616. D(H  98,O  19,Si 11,O  14)    -53.5032         0.013882   
    617. D(H  98,O  19,Si 11,O  17)     68.4492         0.013882   
    618. D(H  99,O  20,Si 12,O  15)     44.1958         0.014514   
    619. D(H  99,O  20,Si 12,O  17)    -79.3743         0.014514   
    620. D(O  27,Si 23,Si 22,O  32)   -174.8713         0.010000   
    621. D(O  30,Si 23,Si 22,O  26)      2.8344         0.010000   
    622. D(O  27,Si 23,Si 22,O  26)    -64.2195         0.010000   
    623. D(Si 21,O  25,Si  2,O   6)   -105.6865         0.013716   
    624. D(Si 21,O  25,Si  2,O   5)    133.3244         0.013716   
    625. D(Si  2,O  25,Si 21,O  29)   -142.0315         0.012732   
    626. D(Si  2,O  25,Si 21,O  28)     98.4402         0.012732   
    627. D(Si 22,O  26,Si  1,O   6)    107.1619         0.012684   
    628. D(Si 22,O  26,Si  1,O   4)   -130.8400         0.012684   
    629. D(Si  1,O  26,Si 22,O  27)   -114.4549         0.014050   
    630. D(Si  1,O  26,Si 22,Si 23)    -93.8782         0.014050   
    631. D(Si 23,O  27,Si 22,O  32)      5.3202         0.013560   
    632. D(Si 23,O  27,Si 22,O  26)    125.1665         0.013560   
    633. D(Si 22,O  27,Si 23,O  33)     -3.3726         0.014064   
    634. D(Si 22,O  27,Si 23,O  30)   -122.5066         0.014064   
    635. D(Si 24,O  28,Si 21,O  29)    105.0117         0.012701   
    636. D(Si 24,O  28,Si 21,O  25)   -134.5539         0.012701   
    637. D(Si 21,O  28,Si 24,O  34)     20.6397         0.014257   
    638. D(Si 21,O  28,Si 24,O  30)    140.0232         0.014257   
    639. D(H 100,O  29,Si 21,O  25)    -92.0846         0.013613   
    640. D(H 100,O  29,Si 21,O  28)     28.4685         0.013613   
    641. D(Si 24,O  30,Si 23,Si 22)     90.7167         0.013925   
    642. D(Si 24,O  30,Si 23,O  27)    111.8769         0.013925   
    643. D(Si 23,O  30,Si 24,O  28)   -108.0033         0.013033   
    644. D(Si 23,O  30,Si 24,O  34)     13.6770         0.013033   
    645. D(H 101,O  31,Si 21,O  25)     16.5114         0.013501   
    646. D(H 101,O  31,Si 21,O  28)   -105.6818         0.013501   
    647. D(H 102,O  32,Si 22,Si 23)    130.8425         0.014591   
    648. D(H 102,O  32,Si 22,O  26)      8.3092         0.014591   
    649. D(H 103,O  33,Si 23,Si 22)     -0.4888         0.014509   
    650. D(H 103,O  33,Si 23,O  27)      0.7417         0.014509   
    651. D(H 104,O  34,Si 24,O  28)    104.7086         0.014200   
    652. D(H 104,O  34,Si 24,O  30)    -14.9549         0.014200   
    653. D(Si 38,Si 35,Si 12,O  15)   -158.4305         0.010000   
    654. D(Si 38,Si 35,Si 12,O  17)    -19.1859         0.010000   
    655. D(O  39,Si 35,Si 12,O  15)    -58.3881         0.010000   
    656. D(O  42,Si 38,Si 35,Si 12)     89.0469         0.010000   
    657. D(O  42,Si 38,Si 35,O  39)     64.1906         0.010000   
    658. D(O  44,Si 38,Si 35,Si 12)     23.3985         0.010000   
    659. D(Si 35,O  39,Si 12,O  15)    130.9405         0.013812   
    660. D(Si 35,O  39,Si 12,O  17)   -106.9803         0.013812   
    661. D(Si 12,O  39,Si 35,Si 38)     92.9874         0.015127   
    662. D(Si 12,O  39,Si 35,O  42)    113.5482         0.015127   
    663. D(Si 36,O  40,Si 11,O  14)   -133.2105         0.013729   
    664. D(Si 36,O  40,Si 11,O  17)    105.8281         0.013729   
    665. D(Si 11,O  40,Si 36,O  41)    -98.2022         0.012744   
    666. D(Si 11,O  40,Si 36,O  46)     25.0751         0.012744   
    667. D(Si 37,O  41,Si 36,O  40)    134.6295         0.012681   
    668. D(Si 37,O  41,Si 36,O  46)     13.0719         0.012681   
    669. D(Si 36,O  41,Si 37,O  44)   -139.9690         0.014393   
    670. D(Si 36,O  41,Si 37,O  47)    -20.5533         0.014393   
    671. D(Si 38,O  42,Si 35,Si 12)   -102.9824         0.015521   
    672. D(Si 38,O  42,Si 35,O  39)   -125.0717         0.015521   
    673. D(H 159,O  42,Si 35,Si 12)     98.2239         0.015521   
    674. D(Si 35,O  42,Si 38,O  44)    123.9859         0.015151   
    675. D(Si 35,O  42,Si 38,O  48)      4.5685         0.015151   
    676. D(H 159,O  42,Si 38,Si 35)    163.7722         0.015151   
    677. D(Si 35,O  43,Si 22,Si 23)    106.8327         0.015714   
    678. D(Si 35,O  43,Si 22,O  26)   -109.8899         0.015714   
    679. D(H 160,O  43,Si 22,Si 23)    -23.3087         0.015714   
    680. D(Si 22,O  43,Si 35,Si 12)     90.5258         0.016732   
    681. D(Si 22,O  43,Si 35,Si 38)   -106.6024         0.016732   
    682. D(H 160,O  43,Si 35,Si 12)   -138.9069         0.016732   
    683. D(Si 38,O  44,Si 37,O  41)    107.6278         0.013188   
    684. D(Si 38,O  44,Si 37,O  47)    -14.1230         0.013188   
    685. D(Si 37,O  44,Si 38,Si 35)    -91.6821         0.014058   
    686. D(Si 37,O  44,Si 38,O  42)   -112.6768         0.014058   
    687. D(H 105,O  45,Si 35,Si 12)     -9.2117         0.015477   
    688. D(H 105,O  45,Si 35,Si 38)   -129.9941         0.015477   
    689. D(H 106,O  46,Si 36,O  40)    -16.7710         0.013495   
    690. D(H 106,O  46,Si 36,O  41)    105.4197         0.013495   
    691. D(H 107,O  47,Si 37,O  41)   -103.2181         0.014238   
    692. D(H 107,O  47,Si 37,O  44)     16.1129         0.014238   
    693. D(H 108,O  48,Si 38,Si 35)     -0.0547         0.014589   
    694. D(H 108,O  48,Si 38,O  42)     -1.7240         0.014589   
    695. D(H 109,O  49,Si 36,O  40)     91.6898         0.013613   
    696. D(H 109,O  49,Si 36,O  41)    -28.8886         0.013613   
    697. D(Si 53,Si 50,Si 24,O  28)   -155.9007         0.010000   
    698. D(Si 53,Si 50,Si 24,O  30)    -16.6203         0.010000   
    699. D(O  54,Si 50,Si 24,O  28)    -50.9168         0.010000   
    700. D(O  57,Si 53,Si 50,Si 24)     72.4982         0.010000   
    701. D(O  57,Si 53,Si 50,O  54)     45.7419         0.010000   
    702. D(O  59,Si 53,Si 50,Si 24)     10.5986         0.010000   
    703. D(Si 50,O  54,Si 24,O  30)   -101.2645         0.013156   
    704. D(Si 50,O  54,Si 24,O  28)    137.5580         0.013156   
[...]
Atom 147C    basis set group =>   6
Atom 148C    basis set group =>   6
Atom 149C    basis set group =>   6
Atom 150H    basis set group =>   3
Atom 151H    basis set group =>   3
Atom 152H    basis set group =>   3
Atom 153H    basis set group =>   3
Atom 154H    basis set group =>   3
Atom 155H    basis set group =>   3
Atom 156H    basis set group =>   3
Atom 157H    basis set group =>   3
Atom 158H    basis set group =>   3
Atom 159H    basis set group =>   3
Atom 160H    basis set group =>   3
Atom 161H    basis set group =>   3
Atom 162H    basis set group =>   3


           ************************************************************
           *        Program running with 12 parallel MPI-processes    *
           *              working on a common directory               *
           ************************************************************
------------------------------------------------------------------------------
                             ORCA STARTUP CALCULATIONS
                           -- RI-GTO INTEGRALS CHOSEN --
------------------------------------------------------------------------------
------------------------------------------------------------------------------
                   ___                                                        
                  /   \      - P O W E R E D   B Y -                         
                 /     \                                                     
                 |  |  |   _    _      __       _____    __    __             
                 |  |  |  | |  | |    /  \     |  _  \  |  |  /  |          
                  \  \/   | |  | |   /    \    | | | |  |  | /  /          
                 / \  \   | |__| |  /  /\  \   | |_| |  |  |/  /          
                |  |  |   |  __  | /  /__\  \  |    /   |      \           
                |  |  |   | |  | | |   __   |  |    \   |  |\   \          
                \     /   | |  | | |  |  |  |  | |\  \  |  | \   \       
                 \___/    |_|  |_| |__|  |__|  |_| \__\ |__|  \__/        
                                                                              
                      - O R C A' S   B I G   F R I E N D -                    
                                      &                                       
                       - I N T E G R A L  F E E D E R -                       
                                                                              
 v1 FN, 2020, v2 2021, v3 2022-2024                                           
------------------------------------------------------------------------------


----------------------
SHARK INTEGRAL PACKAGE
----------------------

Number of atoms                             ...    163
Number of basis functions                   ...   4434
Number of shells                            ...   1728
Maximum angular momentum                    ...      3
Integral batch strategy                     ... SHARK/LIBINT Hybrid
RI-J (if used) integral strategy            ... SPLIT-RIJ (Revised 2003 algorithm where possible)
Printlevel                                  ...      1
Contraction scheme used                     ... SEGMENTED contraction
Prescreening option                         ... SCHWARTZ
   Thresh                                   ... 2.500e-11
   Tcut                                     ... 2.500e-12
   Tpresel                                  ... 2.500e-12 
Coulomb Range Separation                    ... NOT USED
Exchange Range Separation                   ... NOT USED
Multipole approximations                    ... NOT USED
Finite Nucleus Model                        ... NOT USED
CABS basis                                  ... NOT available
Auxiliary Coulomb fitting basis             ... AVAILABLE
   # of basis functions in Aux-J            ...   6175
   # of shells in Aux-J                     ...   2005
   Maximum angular momentum in Aux-J        ...      4
Auxiliary J/K fitting basis                 ... NOT available
Auxiliary Correlation fitting basis         ... NOT available
Auxiliary 'external' fitting basis          ... NOT available

Checking pre-screening integrals            ... done (  0.4 sec) Dimension = 1728
   => SHARK Basis and OBASIS are compatible. Storing Pre-screening
Shell pair information
Shell pair cut-off parameter TPreSel        ...   2.5e-12
Total number of shell pairs                 ...   1493856
Shell pairs after pre-screening             ...    610540
Total number of primitive shell pairs       ...   4435758
Primitive shell pairs kept                  ...   1080198
          la=0 lb=0: 136585 shell pairs
          la=1 lb=0: 215372 shell pairs
          la=1 lb=1:  82861 shell pairs
          la=2 lb=0:  60194 shell pairs
          la=2 lb=1:  50427 shell pairs
          la=2 lb=2:   5963 shell pairs
          la=3 lb=0:  28200 shell pairs
          la=3 lb=1:  24466 shell pairs
          la=3 lb=2:   5241 shell pairs
          la=3 lb=3:   1231 shell pairs

Checking whether 4 symmetric matrices of dimension 4434 fit in memory
:Max Core in MB      =   2500.00
 MB in use           =    696.98
 MB left             =   1803.02
 MB needed           =    300.06
 Data fit in memory  = YES
Calculating RI/J V-Matrix + Cholesky decomp.... done (  8.3 sec)
Calculating Nuclear repulsion               ... done (  0.0 sec) ENN=  44943.866252252694 Eh

Diagonalization of the overlap matrix:
Smallest eigenvalue                        ... 9.170e-09
Time for diagonalization                   ...  356.320 sec
Threshold for overlap eigenvalues          ... 1.000e-07
Number of eigenvalues below threshold      ... 5
Smallest eigenvalue above threshold        ... 1.294e-07

IMPORTANT:
Smallest eigenvalue of S below the DiffSThresh (1.000e-06) while
Thresh>1e-12 and/or TCut>1e-13! In order to avoid SCF convergence issues,
Thresh will be set to at least 1e-12 and TCut to at least 1e-13.
This can be turned off by adding %SCF DiffSThresh -1 END to the input.

Time for construction of square roots      ...    8.367 sec
Total time needed                          ...  365.113 sec

-------------------
DFT GRID GENERATION
-------------------

General Integration Accuracy     IntAcc      ... 4.388
Radial Grid Type                 RadialGrid  ... OptM3 with GC (2021)
Angular Grid (max. ang.)         AngularGrid ... 4 (Lebedev-302)
Angular grid pruning method      GridPruning ... 4 (adaptive)
Weight generation scheme         WeightScheme... mBecke (2022)
Basis function cutoff            BFCut       ... 1.0000e-11
Integration weight cutoff        WCut        ... 1.0000e-14
Partially contracted basis set               ... off
Rotationally invariant grid construction     ... off
Angular grids for H and He will be reduced by one unit
Diffuse basis detected: some atoms will have their outermost
                        angular grid increased by 1.

Total number of grid points                  ...   889459
Total number of batches                      ...    13978
Average number of points per batch           ...       63
Average number of grid points per atom       ...     5457

--------------------
COSX GRID GENERATION
--------------------

GRIDX 1
-------
General Integration Accuracy     IntAcc      ... 3.816
Radial Grid Type                 RadialGrid  ... OptM3 with GC (2021)
Angular Grid (max. ang.)         AngularGrid ... 1 (Lebedev-50)
Angular grid pruning method      GridPruning ... 4 (adaptive)
Weight generation scheme         WeightScheme... mBecke (2022)
Basis function cutoff            BFCut       ... 1.0000e-11
Integration weight cutoff        WCut        ... 1.0000e-14
Partially contracted basis set               ... on
Rotationally invariant grid construction     ... off
Angular grids for H and He will be reduced by one unit
Diffuse basis detected: some atoms will have their outermost
                        angular grid increased by 1.

Total number of grid points                  ...   138003
Total number of batches                      ...     1166
Average number of points per batch           ...      118
Average number of grid points per atom       ...      847
UseSFitting                                  ... on

GRIDX 2
-------
General Integration Accuracy     IntAcc      ... 4.020
Radial Grid Type                 RadialGrid  ... OptM3 with GC (2021)
Angular Grid (max. ang.)         AngularGrid ... 2 (Lebedev-110)
Angular grid pruning method      GridPruning ... 4 (adaptive)
Weight generation scheme         WeightScheme... mBecke (2022)
Basis function cutoff            BFCut       ... 1.0000e-11
Integration weight cutoff        WCut        ... 1.0000e-14
Partially contracted basis set               ... on
Rotationally invariant grid construction     ... off
Angular grids for H and He will be reduced by one unit
Diffuse basis detected: some atoms will have their outermost
                        angular grid increased by 1.

Total number of grid points                  ...   260123
Total number of batches                      ...     2116
Average number of points per batch           ...      122
Average number of grid points per atom       ...     1596
UseSFitting                                  ... on

GRIDX 3
-------
General Integration Accuracy     IntAcc      ... 4.338
Radial Grid Type                 RadialGrid  ... OptM3 with GC (2021)
Angular Grid (max. ang.)         AngularGrid ... 3 (Lebedev-194)
Angular grid pruning method      GridPruning ... 4 (adaptive)
Weight generation scheme         WeightScheme... mBecke (2022)
Basis function cutoff            BFCut       ... 1.0000e-11
Integration weight cutoff        WCut        ... 1.0000e-14
Partially contracted basis set               ... on
Rotationally invariant grid construction     ... off
Angular grids for H and He will be reduced by one unit
Diffuse basis detected: some atoms will have their outermost
                        angular grid increased by 1.

Total number of grid points                  ...   571348
Total number of batches                      ...     4540
Average number of points per batch           ...      125
Average number of grid points per atom       ...     3505
UseSFitting                                  ... on
Grids setup in 219.0 sec
Initializing property integral containers    ... done (  0.2 sec)

SHARK setup successfully completed in 608.0 seconds

Maximum memory used throughout the entire STARTUP-calculation: 1221.7 MB


           ************************************************************
           *        Program running with 12 parallel MPI-processes    *
           *              working on a common directory               *
           ************************************************************
-------------------------------------------------------------------------------
                                 ORCA GUESS
                   Start orbitals & Density for SCF / CASSCF
-------------------------------------------------------------------------------

------------
SCF SETTINGS
------------
Hamiltonian:
 Density Functional     Method          .... DFT(GTOs)
 Exchange Functional    Exchange        .... PBE
   PBE kappa parameter   XKappa         ....  0.804000
   PBE mue parameter    XMuePBE         ....  0.219520
 Correlation Functional Correlation     .... PBE
   PBE beta parameter  CBetaPBE         ....  0.066725
 LDA part of GGA corr.  LDAOpt          .... PW91-LDA
 Gradients option       PostSCFGGA      .... off
 Hybrid DFT is turned on
   Fraction HF Exchange ScalHFX         ....  0.250000
   Scaling of DF-GGA-X  ScalDFX         ....  0.750000
   Scaling of DF-GGA-C  ScalDFC         ....  1.000000
   Scaling of DF-LDA-C  ScalLDAC        ....  1.000000
   Perturbative correction              ....  0.000000
   NL short-range parameter             ....  6.900000
 RI-approximation to the Coulomb term is turned on
   Number of AuxJ basis functions       .... 6175
   RIJ-COSX (HFX calculated with COS-X)).... on


General Settings:
 Integral files         IntName         .... frame004
 Hartree-Fock type      HFTyp           .... RHF
 Total Charge           Charge          ....   -1
 Multiplicity           Mult            ....    1
 Number of Electrons    NEL             .... 1088
 Basis Dimension        Dim             .... 4434
 Nuclear Repulsion      ENuc            ....  44943.8662522527 Eh

Convergence Acceleration:
 AO-DIIS                CNVDIIS         .... on
   Start iteration      DIISMaxIt       ....    12
   Startup error        DIISStart       ....  0.200000
   # of expansion vecs  DIISMaxEq       ....     5
   Bias factor          DIISBfac        ....   1.050
   Max. coefficient     DIISMaxC        ....  10.000
 MO-DIIS                CNVKDIIS        .... off
 Trust-Rad. Augm. Hess. CNVTRAH         .... auto
   Auto Start mean grad. ratio tolernc. ....  1.125000
   Auto Start start iteration           ....    50
   Auto Start num. interpolation iter.  ....    10
   Max. Number of Micro iterations      ....    24
   Max. Number of Macro iterations      .... Maxiter - #DIIS iter
   Number of Davidson start vectors     ....     2
   Converg. threshold    (grad. norm)   ....   1.000e-05
   Grad. Scal. Fac. for Micro threshold ....   0.100
   Minimum threshold for Micro iter.    ....   1.000e-02
   NR start threshold (gradient norm)   ....   1.000e-04
   Initial trust radius                 ....   0.400
   Minimum AH scaling param. (alpha)    ....   1.000
   Maximum AH scaling param. (alpha)    .... 1000.000
   Quad. conv. algorithm                .... NR
   White noise on init. David. guess    .... on
   Maximum white noise                  ....   0.010
   Pseudo random numbers                .... off
   Inactive MOs                         .... canonical
   Orbital update algorithm             .... Taylor
   Preconditioner                       .... Diag
   Full preconditioner red. dimension   ....   250
 SOSCF                 CNVSOSCF           .... on
   Start iteration     SOSCFMaxIt         ....   150
   Startup grad/error  SOSCFStart         ....  0.003300
   Hessian update      SOSCFHessUp        .... L-BFGS
   Autom. constraints  SOSCFAutoConstrain .... off
 Level Shifting         CNVShift        .... on
   Level shift para.    LevelShift      ....    0.2500
   Turn off err/grad.   ShiftErr        ....    0.0010
 Zerner damping         CNVZerner       .... off
 Static damping         CNVDamp         .... on
   Fraction old density DampFac         ....    0.7000
   Max. Damping (<1)    DampMax         ....    0.9800
   Min. Damping (>=0)   DampMin         ....    0.0000
   Turn off err/grad.   DampErr         ....    0.1000

SCF Procedure:
 Maximum # iterations   MaxIter         ....   500
 SCF integral mode      SCFMode         .... Direct
   Integral package                     .... SHARK and LIBINT hybrid scheme
 Reset frequency        DirectResetFreq ....    20
 Integral Threshold     Thresh          ....  1.000e-12 Eh
 Primitive CutOff       TCut            ....  1.000e-13 Eh

Convergence Tolerance:
 Convergence Check Mode ConvCheckMode   .... Total+1el-Energy
 Convergence forced     ConvForced      .... 0
 Energy Change          TolE            ....  1.000e-08 Eh
 1-El. energy change                    ....  1.000e-05 Eh
 Orbital Gradient       TolG            ....  1.000e-05
 Orbital Rotation angle TolX            ....  1.000e-05
 DIIS Error             TolErr          ....  5.000e-07

------------------------------
INITIAL GUESS: MODEL POTENTIAL
------------------------------
Loading Hartree-Fock densities                     ... done
Calculating cut-offs                               ... done
Initializing the effective Hamiltonian             ... done
Setting up the integral package (SHARK)            ... done
Starting the Coulomb interaction                   ... done (  96.5 sec)
Making the grid                                    ... done (  26.9 sec)
Mapping shells                                     ... done
Starting the XC term evaluation                    ... done (  15.1 sec)
  promolecular density results
     # of electrons  =   1086.955162324
     EX              =  -1212.746580145
     EC              =    -38.859300257
     EX+EC           =  -1251.605880402
Transforming the Hamiltonian                       ... done (   8.4 sec)
Diagonalizing the Hamiltonian                      ... done ( 349.5 sec)
Back transforming the eigenvectors                 ... done (   4.4 sec)
Now organizing SCF variables                       ... done
                      ------------------
                      INITIAL GUESS DONE ( 505.0 sec)
                      ------------------
             **** ENERGY FILE WAS UPDATED (frame004.en.tmp) ****
Finished Guess after 516.2 sec
Maximum memory used throughout the entire GUESS-calculation: 1205.8 MB


           ************************************************************
           *        Program running with 12 parallel MPI-processes    *
           *              working on a common directory               *
           ************************************************************

-------------------------------------------------------------------------------------------
                                      ORCA LEAN-SCF
                              memory conserving SCF solver
-------------------------------------------------------------------------------------------

--------------------
CPCM SOLVATION MODEL
--------------------
CPCM parameters:
  Epsilon                                         ...      80.1510
  Refrac                                          ...       1.3328
  Rsolv                                           ...       1.3000
  Surface type                                    ... GAUSSIAN VDW
  Discretization scheme                           ... Constant charge density
    Threshold for H atoms                         ...       5.0000 (charges/Ang^2)
    Threshold for non-H atoms                     ...       5.0000 (charges/Ang^2)
  Epsilon function type                           ...         CPCM
Solvent:                                          ... WATER
Radii:
  Scheme                                          ... Element-dependent radii
  Radius for Si used is    4.7621 Bohr (=   2.5200 Ang.)
  Radius for O  used is    3.4469 Bohr (=   1.8240 Ang.)
  Radius for H  used is    2.4944 Bohr (=   1.3200 Ang.)
  Radius for P  used is    4.0818 Bohr (=   2.1600 Ang.)
  Radius for N  used is    3.5149 Bohr (=   1.8600 Ang.)
  Radius for C  used is    3.8550 Bohr (=   2.0400 Ang.)
Calculating surface                               ...        done! (  0.1s)
Cavity surface points                             ...        12854
Cavity Volume                                     ...   12170.9985
Cavity Surface-area                               ...    4821.9033
Calculating surface distance matrix               ...        done! (  3.8s)
Performing Cholesky decomposition & store         ...        done! ( 20.3s)
Overall time for CPCM initialization              ...                24.2s

----------------------------------------D-I-I-S--------------------------------------------
Iteration    Energy (Eh)           Delta-E    RMSDP     MaxDP     DIISErr   Damp  Time(sec)
-------------------------------------------------------------------------------------------
               ***  Starting incremental Fock matrix formation  ***
    1    -13533.2915356020748732     0.00e+00  2.24e-02  6.93e+00  3.79e-01  0.700 1917.3
    2    -13536.2554180145671126    -2.96e+00  1.49e-02  5.40e+00  1.56e-01  0.700 1533.8
                               ***Turning on AO-DIIS***
    3    -13537.2996117081856937    -1.04e+00  6.66e-03  3.09e+00  4.05e-02  0.700 1169.6
    4    -13537.9428998686562409    -6.43e-01  1.65e-02  7.65e+00  1.91e-02  0.000 1122.1
    5    -13539.4003147259645630    -1.46e+00  1.83e-03  7.18e-01  9.27e-03  0.000 1167.0
    6    -13539.4052120412670774    -4.90e-03  1.17e-03  4.62e-01  4.39e-03  0.000 1109.7
