163
Step=1
Si  0.82550300  16.90273300  8.02672800
Si  3.57859300  15.40405400  7.91524300
Si  3.61525300  12.32827200  7.79142800
O  -0.39399300  16.38822500  8.97049800
O   2.14700000  16.01900000  8.38100000
O   2.16833100  11.70013100  8.17359000
O   3.71000000  13.84500000  8.38400000
O   0.51413300  16.82449500  6.43064600
O   3.78242900  15.56381400  6.30078700
O   3.83835800  12.26151700  6.17639000
Si  0.79040500  20.03770000  8.11798300
Si  3.61646500  24.59144300  7.78977800
Si  3.57392400  21.51644700  7.91298100
O  -0.36656700  20.60916400  9.10618700
O   2.16894300  25.21986200  8.16918500
O   2.14700000  20.90100000  8.38100000
O   1.04500000  18.46000000  8.38400000
O   3.71000000  23.07500000  8.38400000
O   0.28796900  20.17942500  6.58029600
O   3.84322900  24.65740300  6.17523000
O   3.76807200  21.35886600  6.29712000
Si  6.22270300  10.74479000  7.89204900
Si  6.22770100  16.89731300  8.01236700
Si  8.87567200  15.40393500  8.07146700
Si  8.88270000  12.35331700  7.92738900
O   4.81100000  11.40400000  8.38100000
O   4.84026700  16.22821100  8.54553500
O   7.53252400  16.13445000  8.63606400
O   7.47600000  11.67100000  8.38100000
O   6.39553700  9.26420200  8.53484800
O   8.97115800  13.85656800  8.57903200
O   6.19358000  10.56500300  6.27778400
O   6.34068200  16.74021400  6.38952300
O   8.84554300  15.39082800  6.42808100
O   8.99617600  12.49448500  6.29922600
Si  6.21638900  20.01550500  8.00088200
Si  6.22275700  26.17797500  7.89639700
Si  8.88164500  24.57359600  7.91870100
Si  8.85075400  21.52826000  8.03684300
O   4.83212200  20.68555600  8.53863800
O   4.81100000  25.51600000  8.38100000
O   7.47600000  25.24900000  8.38100000
O   7.51705000  20.79206900  8.61378700
O   6.27927000  18.45840700  8.45642100
O   8.96178700  23.06765900  8.56086500
O   6.31668600  20.15996000  6.37582700
O   6.19404500  26.36676300  6.28308200
O   8.99771800  24.44641200  6.28994600
O   8.79833300  21.55854500  6.39502400
O   6.39500700  27.65560300  8.54611700
Si  11.54077800  10.90435200  7.70392400
Si  11.54475400  16.89739000  7.91695200
Si  14.20353600  15.39713100  7.87470900
Si  14.23582000  12.29374200  7.89821800
O   10.14000000  11.40400000  8.38100000
O   10.19474400  16.23030400  8.55061100
O   12.85059900  16.10098600  8.48098100
O   12.80500000  11.67100000  8.38100000
O   11.70002200  9.30021600  7.89283400
O   14.36800000  13.84500000  8.38400000
O   11.52647400  11.21103000  6.10107400
O   11.53153700  16.72019100  6.29171000
O   14.13836300  15.44005700  6.24791000
O   14.36592100  12.11520300  6.28747400
Si  11.52107500  20.04305300  7.85872200
Si  11.54104400  26.02008600  7.70790700
Si  14.23698900  24.62924600  7.90141000
Si  14.21263200  21.53527600  7.85646400
O   10.17156500  20.69916000  8.49678400
O   10.14000000  25.51600000  8.38100000
O   12.80500000  25.24900000  8.38100000
O   12.80500000  20.90100000  8.38100000
O   11.64364400  18.47899300  8.30700800
O   14.36800000  23.07500000  8.38400000
O   11.49649700  20.16818400  6.23103200
O   11.52980000  25.72254300  6.10357100
O   14.36785300  24.80206500  6.29032800
O   14.23459300  21.46715800  6.21933400
O   11.70097800  27.62284100  7.90688300
Si  16.94924800  16.87134200  8.04468200
O   15.47125000  11.46932700  8.55584000
O   15.46900000  16.28600000  8.38100000
O   18.07446200  16.21289800  9.01232900
O   17.32777000  16.54921100  6.49331000
Si  16.79747600  19.93081100  7.73267200
O   15.46900000  20.63400000  8.38100000
O   15.47112700  25.45237000  8.56102300
O   18.11634100  20.83520200  8.03021800
O   17.03200000  18.46000000  8.38400000
O   16.60876900  19.83038400  6.12139200
H  -0.50423300  15.43969800  9.08178100
H   1.69998200  12.07828000  8.92297400
H   0.31527800  15.96291600  6.05244500
H   3.06011700  15.36094400  5.69970900
H   3.18226100  12.64156700  5.58570400
H  -0.12746500  20.79216800  10.01912000
H   1.69595600  24.83705400  8.91328400
H   0.06870200  21.06154600  6.26602500
H   3.18504400  24.28262500  5.58349200
H   3.04237600  21.56618400  5.70151800
H   6.86261700  9.19605300  9.37200300
H   5.50488200  11.07966300  5.83436100
H   5.53947200  16.40054300  5.95952200
H   8.05967300  15.81862300  6.04527900
H   8.86604800  13.39292800  5.95934400
H   5.51369500  20.50210000  5.95097600
H   5.50812300  25.85154700  5.83617100
H   8.84698100  23.55488100  5.94014900
H   8.01534700  21.12144600  6.01740500
H   6.85640200  27.71938900  9.38677000
H   12.07465600  8.98126900  8.71867800
H   10.73932800  11.69412400  5.80207300
H   10.72188000  16.34829400  5.91526700
H   13.31446500  15.80088700  5.88887800
H   13.52713000  11.98281400  5.82547800
H   10.69115600  20.54020200  5.84772900
H   10.74283600  25.24201400  5.79986200
H   13.53075200  24.94716800  5.82892500
H   13.39832300  21.21040200  5.80701700
H   12.07260100  27.93684500  8.73599200
H   15.82850300  11.79809400  9.38506500
H   18.14928400  15.25438700  9.00788300
H   16.62567000  16.64916100  5.84290700
H   15.82415900  25.12896100  9.39417300
H   18.51458400  20.76863300  8.90270000
H   15.82968300  20.30123600  5.78901700
P   13.16992900  23.78449200  11.72772000
O   14.38177300  19.71556300  12.67405000
O   14.05159700  16.80693700  11.65252600
O   14.34297700  18.33747300  9.61613600
O   13.99361700  22.42184600  11.92830800
O   12.68885700  24.28567000  13.06843200
O   11.87836900  23.42949400  10.82533500
O   9.19270200  22.58007300  11.93136900
O   14.06037300  24.77835500  11.01536700
N   12.15479500  19.50680100  13.37831500
N   11.32379200  21.56289600  13.67491700
N   10.49792600  18.70539500  11.72468600
N   8.93197200  20.40961400  11.17336100
N   8.84131600  18.28835700  10.16099600
C   13.17552700  17.90956100  11.70555100
C   13.50696400  18.91557700  10.58021800
C   13.36984600  18.75500100  12.99058500
C   14.21852200  20.09442900  11.30727400
C   13.43094200  21.40025600  11.17796000
C   10.99039000  19.58807400  12.62935100
C   12.27488800  20.73823900  14.01512300
C   10.50500900  20.88290600  12.83773400
C   9.47295500  21.38886000  11.98036400
C   9.43875300  19.12442000  11.06915300
H   12.15198700  17.51953500  11.62954100
H   12.58520600  19.25319700  10.08318100
H   13.72616400  18.13794500  13.82478700
H   15.23487000  20.22832600  10.91089400
H   12.40363800  21.26177600  11.54260400
H   13.37135500  21.74664600  10.13370800
H   14.36355200  16.68915200  10.72703500
H   14.76043100  19.05830500  9.08983100
H   13.15633000  21.05316100  14.55860000
H   8.29981400  20.69363900  10.42834300
H   8.00306500  18.50481900  9.63029500
H   9.33680000  17.50073600  9.75777000
H   11.02100200  23.28752700  11.27886600
