Running on  hostname
Tue Oct 21 12:51:05 PM CEST 2025

                                 *****************
                                 * O   R   C   A *
                                 *****************

                                            #,                                       
                                            ###                                      
                                            ####                                     
                                            #####                                    
                                            ######                                   
                                           ########,                                 
                                     ,,################,,,,,                         
                               ,,#################################,,                 
                          ,,##########################################,,             
                       ,#########################################, ''#####,          
                    ,#############################################,,   '####,        
                  ,##################################################,,,,####,       
                ,###########''''           ''''###############################       
              ,#####''   ,,,,##########,,,,          '''####'''          '####       
            ,##' ,,,,###########################,,,                        '##       
           ' ,,###''''                  '''############,,,                           
         ,,##''                                '''############,,,,        ,,,,,,###''
      ,#''                                            '''#######################'''  
     '                                                          ''''####''''         
             ,#######,   #######,   ,#######,      ##                                
            ,#'     '#,  ##    ##  ,#'     '#,    #''#        ,####,    ,#,          
            ##       ##  ##   ,#'  ##            #'  '#       #'       ,# #          
            ##       ##  #######   ##           ,######,      #####,      #          
            '#,     ,#'  ##    ##  '#,     ,#' ,#      #,     #,   #      #          
             '#######'   ##     ##  '#######'  #'      '#     '####' #    #          



                #########################################################
                #                        -***-                          #
                #          Department of theory and spectroscopy        #
                #                                                       #
                #                      Frank Neese                      #
                #                                                       #
                #     Directorship, Architecture, Infrastructure        #
                #                    SHARK, DRIVERS                     #
                #        Core code/Algorithms in most modules           #
                #                                                       #
                #        Max Planck Institute fuer Kohlenforschung      #
                #                Kaiser Wilhelm Platz 1                 #
                #                 D-45470 Muelheim/Ruhr                 #
                #                      Germany                          #
                #                                                       #
                #                  All rights reserved                  #
                #                        -***-                          #
                #########################################################


                         Program Version 6.1.0  -  RELEASE   -
                                (GIT: $679e74b$)
                          ($2025-06-10 18:02:51 +0200$)


 With contributions from (in alphabetic order):
[Max-Planck-Institut fuer Kohlenforschung]                               
  Daniel Aravena         : Magnetic Suceptibility                        
  Michael Atanasov       : Ab Initio Ligand Field Theory (pilot matlab implementation)
  Alexander A. Auer      : GIAO ZORA, VPT2 properties, NMR spectrum      
  Ute Becker             : All parallelization in ORCA, NUMFREQ, NUMCALC 
  Giovanni Bistoni       : ED, misc. LED, open-shell LED, HFLD           
  Dmytro Bykov           : pre 5.0 version of the SCF Hessian            
  Marcos Casanova-Páez   : Triplet and SCS-CIS(D). UHF-(DLPNO)-IP/EA/STEOM-CCSD. UHF-CVS-IP/STEOM-CCSD   
  Vijay G. Chilkuri      : MRCI spin determinant printing, contributions to CSF-ICE 
  Pauline Colinet        : FMM embedding                                 
  Dipayan Datta          : RHF DLPNO-CCSD density                        
  Achintya Kumar Dutta   : EOM-CC, STEOM-CC                              
  Nicolas Foglia         : Exact transition moments, OPA infrastructure, MCD improvements    
  Dmitry Ganyushin       : Spin-Orbit,Spin-Spin,Magnetic field MRCI      
  Miquel Garcia-Rates    : C-PCM and meta-GGA Hessian, CCSD/C-PCM, Gaussian charge scheme 
  Tiago L. C. Gouveia    : GS-ROHF, GS-ROCIS                             
  Yang Guo               : DLPNO-NEVPT2, F12-NEVPT2, CIM, IAO-localization        
  Andreas Hansen         : Spin unrestricted coupled pair/coupled cluster methods 
  Ingolf Harden          : AUTO-CI MPn and infrastructure                
  Benjamin Helmich-Paris : MC-RPA, TRAH-(SCF,CASSCF), AVAS, COSX integrals, SCF dyn. polar., MC-PDFT, srDFT 
  Lee Huntington         : MR-EOM, pCC                                   
  Robert Izsak           : Overlap fitted RIJCOSX, COSX-SCS-MP3, EOM     
  Riya Kayal             : Wick's Theorem for AUTO-CI, AUTO-CI UHF-CCSDT 
  Emily Kempfer          : AUTO-CI RHF CISDT and CCSDT, approximate NEVPT4
  Christian Kollmar      : KDIIS, OOCD, Brueckner-CCSD(T), CCSD density, CASPT2, CASPT2-K, improved NEVPT2 
  Axel Koslowski         : Symmetry handling                             
  Simone Kossmann        : meta-GGA functionals, TD-DFT gradient, OOMP2, (MP2 Hessian; deprecated post 5.0) 
  Lucas Lang             : DCDCAS, Hyperfine gauge corrections, ICE-SOC+SSC
  Marvin Lechner         : AUTO-CI (C++ implementation), FIC-MRCC        
  Spencer Leger          : CASSCF response                               
  Dagmar Lenk            : GEPOL surface, SMD, ORCA-2-JSON               
  Dimitrios Liakos       : Extrapolation schemes; Compound Job, Property file
  Dimitrios Manganas     : Further ROCIS development; embedding schemes. LFT, Crystal Embedding 
  Dimitrios Pantazis     : SARC Basis sets                               
  Anastasios Papadopoulos: AUTO-CI, single reference methods and gradients 
  Taras Petrenko         : pre 6.0 DFT Hessian and TD-DFT gradient,  ECA, NRVS 
  Petra Pikulova         : Analytic Raman intensities                    
  Peter Pinski           : DLPNO-MP2, DLPNO-MP2 Gradient                 
  Shashank Vittal Rao    : ES-AILFT, MagRelax                            
  Christoph Reimann      : Effective Core Potentials                     
  Marius Retegan         : Local ZFS, SOC                                
  Christoph Riplinger    : Optimizer, TS searches, QM/MM, DLPNO-CCSD(T), (RO)-DLPNO pert. Triples 
  Michael Roemelt        : Original ROCIS implementation, recursive CI coupling coefficients
  Masaaki Saitow         : Open-shell DLPNO-CCSD energy and density      
  Barbara Sandhoefer     : DKH picture change effects                    
  Yorick L. A. Schmerwitz: GMF and freeze-and-release deltaSCF, NEB S-IDPP initial path                    
  Kantharuban Sivalingam : CASSCF convergence/infrastructure, NEVPT2, NEVPT3, NEVPT4(SD), FIC-MRCI and CEPA variants
  Bernardo de Souza      : ESD, SOC TD-DFT                               
  Georgi L. Stoychev     : AutoAux, RI-MP2 NMR, DLPNO-MP2 response, X2C  
  Van Anh Tran           : RI-MP2 g-tensors                              
  Willem Van den Heuvel  : Paramagnetic NMR                              
  Zikuan Wang            : NOTCH, Electric field optimization            
  Frank Wennmohs         : Technical directorship and infrastructure     
  Hang Xu                : AUTO-CI-Response properties                   
                                                                         
[FACCTs GmbH]                                                            
  Markus Bursch, Nicolas Foglia, Miquel Garcia-Rates, Ingolf Harden, Hagen Neugebauer, Anastasios Papadopoulos, 
  Christoph Riplinger, Bernardo de Souza, Georgi L. Stoychev                                                    
                                                                 
  APM, various basis sets, CI-OPT, improved COSX, DLPNO-Multilevel,           
  DOCKER, DRACO, updates on ESD, Fragmentator, GOAT, IRC, LR-CPCM, L-BFGS, MBIS, meta-GGA TD-DFT gradient, ML-optimized integration grids, 
  MM, NACMEs, nearIR, NEB, NEB-TS, NL-DFT gradient (VV10), 2- and 3-layer-ONIOM, interface openCOSMO-RS, QMMM,   
  Crystal-QMMM, RESP, rigid body optimization, SF, symmetry and pop. for TD-DFT, various functionals, SOLVATOR                                   
                                                                         
[Other institutions]                                                     
  V. Asgeirsson          : NEB                                           
  Christoph Bannwarth    : sTDA-DFT, sTD-DFT, PBEh-3c, B97-3c, D3        
  Giovanni Bistoni       : ETS/NOCV, ADLD/ADEX, COVALED                  
  Martin Brehm           : Molecular dynamics                            
  Ronald Cardenas        : ETS/NOCV                                      
  Martina Colucci        : COVALED                                       
  Sebastian Ehlert       : rSCAN, r2SCAN, r2SCAN-3c, D4, dhf basis sets  
  Marvin Friede          : D4 for Fr, Ra, Ac-Lr                          
  Lars Goerigk           : TD-DFT with DH, B97 family of functionals     
  Stefan Grimme          : VdW corrections, initial TS optimization, DFT functionals, gCP, sTDA/sTD-DF 
  Waldemar Hujo          : DFT-NL                                        
  H. Jonsson             : NEB                                           
  Holger Kruse           : gCP                                           
  Marcel Mueller         : wB97X-3c, vDZP basis set                      
  Hagen Neugebauer       : wr2SCAN, Native XTB                           
  Gianluca Regni         : ADLD/ADEX                                     
  Tobias Risthaus        : pre 6.0 range-separated hybrid DFT and stability analysis
  Lukas Wittmann         : regularized MP2, r2SCAN double-hybrids, wr2SCAN        
                                                                         
We gratefully acknowledge several colleagues who have allowed us to      
interface, adapt or use parts of their codes:                            
  Ed Valeev, F. Pavosevic, A. Kumar             : LibInt (2-el integral package), F12 methods 
  Garnet Chan, S. Sharma, J. Yang, R. Olivares  : DMRG                   
  Ulf Ekstrom                                   : XCFun DFT Library      
  Mihaly Kallay                                 : mrcc  (arbitrary order and MRCC methods)
  Frank Weinhold                                : gennbo (NPA and NBO analysis)           
  Simon Mueller                                 : openCOSMO-RS                            
  Christopher J. Cramer and Donald G. Truhlar   : smd solvation model                     
  S Lehtola, MJT Oliveira, MAL Marques          : LibXC Library                           
  Liviu Ungur et al                             : ANISO software                          


 Your calculation uses the libint2 library for the computation of 2-el integrals
 For citations please refer to: http://libint.valeyev.net

 Your ORCA version has been built with support for libXC version: 7.0.0
 For citations please refer to: https://libxc.gitlab.io

 This ORCA versions uses:
   CBLAS   interface :  Fast vector & matrix operations
   LAPACKE interface :  Fast linear algebra routines
   SCALAPACK package :  Parallel linear algebra routines
   Shared memory     :  Shared parallel matrices
   BLAS/LAPACK       :  OpenBLAS 0.3.29  USE64BITINT DYNAMIC_ARCH NO_AFFINITY Haswell SINGLE_THREADED
        Core in use  :  Haswell
   Copyright (c) 2011-2014, The OpenBLAS Project


  ***********************************
  * Starting time: Tue Oct 21 12:51:05 2025
  * Host name:     node223.cluster
  * Process ID:    1464813
  * Working dir.:  /data/scratch/54377026
  ***********************************

NOTE: MaxCore=2500 MB was set to SCF,MP2,MDCI,CIPSI,MRCI,RASCI and CIS
      => If you want to overwrite this, your respective input block should be placed after the MaxCore statement
Your calculation utilizes the atom-pairwise dispersion correction
with the Becke-Johnson damping scheme (D3BJ)


Warning: RI is on but no J-basis has been assigned. Assigning Def2/J (nothing to worry about!)
================================================================================

----- Orbital basis set information -----
Your calculation utilizes the basis: ma-def2-TZVP
   F. Weigend and R. Ahlrichs, Phys. Chem. Chem. Phys. 7, 3297 (2005).
   J. Zheng, X. Xu and D. G. Truhlar, Theor. Chem. Acc. 128, 295 (2011).

----- AuxJ basis set information -----
Your calculation utilizes the auxiliary basis: def2/J
   H-Rn: F. Weigend, Phys. Chem. Chem. Phys. 8, 1057 (2006).
   Fr-Lr: K. Eichkorn, F. Weigend, O. Treutler, R. Ahlrichs; Theor. Chem. Acc. 97, 119 (1997).

================================================================================
                                        WARNINGS
                       Please study these warnings very carefully!
================================================================================


WARNING: Geometry Optimization
  ===> : Switching off AutoStart
         For restart on a previous wavefunction, please use MOREAD

================================================================================
                                       INPUT FILE
================================================================================
NAME = frame_8_ma.inp
|  1> ! PBE0 D3BJ CPCM(water) Opt ma-def2-TZVP TRAH
|  2> 
|  3> %pal
|  4>   nprocs 8
|  5> end
|  6> 
|  7> %maxcore 2500
|  8> 
|  9> %scf
| 10>   # A safety mechanism for difficult convergence
| 11>   MaxIter 500  # Increase max iterations from default 125
| 12> end
| 13> 
| 14> %geom
| 15>   Constraints
| 16>     { C 4 C }
| 17>     { C 6 C }
| 18>     { C 15 C }
| 19>     { C 16 C }
| 20>     { C 17 C }
| 21>     { C 25 C }
| 22>     { C 28 C }
| 23>     { C 40 C }
| 24>     { C 41 C }
| 25>     { C 54 C }
| 26>     { C 57 C }
| 27>     { C 59 C }
| 28>     { C 69 C }
| 29>     { C 70 C }
| 30>     { C 73 C }
| 31>     { C 81 C }
| 32>     { C 85 C }
| 33>     { C 88 C }
| 34>   end
| 35> end
| 36> 
| 37> * xyz -1 1
| 38>   Si          1.01584940691336     16.98473749793221      7.71442719708477
| 39>   Si          3.57923367567821     15.39133019492356      7.91059431342413
| 40>   Si          3.67964630880507     12.35914089179849      7.70939668367368
| 41>   O          -0.46139985104546     16.39272386451212      8.01662961553843
| 42>   O           2.14699997194825     16.01900004503999      8.38100001737441
| 43>   O           2.21311226627545     11.68896476260120      7.88474360985874
| 44>   O           3.70999998330615     13.84499992094770      8.38400001975586
| 45>   O           1.39966403956866     17.05764420060718      6.12447492573574
| 46>   O           3.69829387271895     15.42879792811216      6.27215702184533
| 47>   O           4.00519393970909     12.46145685683141      6.11287476427345
| 48>   Si          0.86014885982922     20.01298931104783      7.93053319381898
| 49>   Si          3.60761999833852     24.59804377458459      7.80395007909020
| 50>   Si          3.57522283649379     21.52508193969712      7.89287768164530
| 51>   O          -0.46768088559621     20.66082861233224      8.59509867985980
| 52>   O           2.16593027171910     25.21977574157360      8.21459293089325
| 53>   O           2.14699988677398     20.90100032545601      8.38099989601097
| 54>   O           1.04499999175025     18.45999979532281      8.38399999836315
| 55>   O           3.71000017622094     23.07499989984875      8.38400003566841
| 56>   O           0.68558282283008     19.92385627234851      6.31365149871032
| 57>   O           3.80821389507576     24.67658107638256      6.18665917861577
| 58>   O           3.75577665213103     21.37543143066659      6.27703225661214
| 59>   Si          6.22535850218882     10.73903427981448      7.89845972784266
| 60>   Si          6.22372225317021     16.88799309182872      7.97412499175508
| 61>   Si          8.87397570543970     15.39967949045710      8.09573698230070
| 62>   Si          8.88208210252179     12.35060316212968      7.92798470236717
| 63>   O           4.81099999443966     11.40400000550388      8.38100000898946
| 64>   O           4.83721349132031     16.23245950103416      8.52180204591708
| 65>   O           7.51959044175533     16.13237224190063      8.62221191948324
| 66>   O           7.47599999236346     11.67100001501852      8.38099999817111
| 67>   O           6.39052161907148      9.26344710901001      8.55160382024324
| 68>   O           8.96099363405582     13.85057664815607      8.58679184726317
| 69>   O           6.19942835255328     10.54192336113030      6.28557420065140
| 70>   O           6.33968475315317     16.69597607773542      6.35592012180183
| 71>   O           8.90387408858695     15.41792389845013      6.45310084565787
| 72>   O           8.99636373712165     12.49456682962092      6.30049543426892
| 73>   Si          6.22457061591832     20.02135677770603      7.94992435289609
| 74>   Si          6.22506653447735     26.17967171974694      7.90712257509278
| 75>   Si          8.88071795423388     24.56599328846847      7.93846675047425
| 76>   Si          8.87313456580914     21.50905197014868      8.08324775535858
| 77>   O           4.83782462299223     20.68401666945452      8.49038410136560
| 78>   O           4.81099990864442     25.51600007053547      8.38099999877195
| 79>   O           7.47600008728896     25.24899999643211      8.38099998503034
| 80>   O           7.51456422734140     20.77735450124908      8.59796655026743
| 81>   O           6.27733593032244     18.45684658942883      8.37979711338681
| 82>   O           8.95843194288389     23.05741709045766      8.56401106137301
| 83>   O           6.34276155221284     20.18827436128885      6.33028613944240
| 84>   O           6.19197695316156     26.38738280920997      6.29538162109732
| 85>   O           8.99675556392641     24.43357038054970      6.30565294757449
| 86>   O           8.90656655315138     21.48790558280247      6.43800680870391
| 87>   O           6.39629116153814     27.64928703608728      8.57661600562308
| 88>   Si         11.54129636685945     10.90123523746061      7.70706547257434
| 89>   Si         11.53594308555095     16.89515724697445      8.02321317435544
| 90>   Si         14.18632547072613     15.40106302253825      7.89820426149976
| 91>   Si         14.23457525139530     12.29559078602454      7.89604227949602
| 92>   O          10.14000000737629     11.40399996607274      8.38100000184245
| 93>   O          10.17707422331282     16.21916688184971      8.64267603432868
| 94>   O          12.84810318847305     16.09251587469527      8.55838188009908
| 95>   O          12.80499999585354     11.67100004057932      8.38099999418128
| 96>   O          11.69992129630402      9.29798350878962      7.90380346730937
| 97>   O          14.36799997499377     13.84499999853337      8.38400000505782
| 98>   O          11.52689150346895     11.20002502807562      6.10280734969993
| 99>   O          11.50598626141694     16.76049597868145      6.39509386597069
|100>   O          14.04506421966353     15.44418790223331      6.27862001013781
|101>   O          14.36133615178035     12.11967988347944      6.28475157302919
|102>   Si         11.53010630172290     20.02629637994498      8.02348848732347
|103>   Si         11.53820057556243     26.01440650462023      7.70417200740324
|104>   Si         14.22734219925431     24.62186927320652      7.88160421563936
|105>   Si         14.17830845140379     21.51871766981935      7.91699223392834
|106>   O          10.17604160419423     20.70066765172924      8.63014353754127
|107>   O          10.14000003159825     25.51600002870695      8.38099999978118
|108>   O          12.80499999715664     25.24899999747022      8.38099999712193
|109>   O          12.83713237744180     20.83867874917994      8.56609988199628
|110>   O          11.62178639901003     18.46055766016066      8.46501613524647
|111>   O          14.36799998249613     23.07499998552759      8.38400000181371
|112>   O          11.52473273702180     20.16419621799453      6.39353636874658
|113>   O          11.52460387218050     25.70372757255764      6.10137424694499
|114>   O          14.32854900051812     24.76883386761124      6.26620824336299
|115>   O          14.08401045367312     21.41571843832596      6.28646497957779
|116>   O          11.70005483713434     27.61900326146863      7.88860225281349
|117>   Si         16.91559953287235     16.89003368223436      7.93692155042382
|118>   O          15.47157437178503     11.46962606892730      8.54914043838702
|119>   O          15.46900003222660     16.28599999291879      8.38100000293587
|120>   O          18.09371019114326     16.03611830290525      8.65695573757005
|121>   O          17.17130215736555     16.77048797195977      6.33496907729785
|122>   Si         16.72981165369891     19.88826239284896      7.66542242955994
|123>   O          15.46900003631863     20.63400001730709      8.38100000180887
|124>   O          15.47610713058182     25.45046254092329      8.50627471814934
|125>   O          18.05747491159033     20.82180355623662      7.72682358579260
|126>   O          17.03199996109105     18.45999999479815      8.38399999781607
|127>   O          16.38973041935313     19.60381132420588      6.09378595587169
|128>   H          -0.65428404486145     15.49345563432924      7.73440910384733
|129>   H           1.89979098168806     11.50087195581838      8.77422458088767
|130>   H           1.17112608782350     17.88163983192642      5.67388248728181
|131>   H           3.01466216547682     15.96604486930747      5.83653613139957
|132>   H           3.91430190274642     13.33958552483047      5.71930907411961
|133>   H          -0.37739302408876     21.11593686561147      9.43722536554976
|134>   H           1.70379432474390     24.82307314675762      8.95826680656167
|135>   H           0.43190441752986     20.71005753375167      5.82144666811156
|136>   H           3.12548772163536     24.33706338124208      5.60155826059742
|137>   H           3.06631333602586     21.66583827648215      5.67359039309234
|138>   H           6.92585272468367      9.18712323958761      9.34594150243005
|139>   H           5.62396712281377     11.16314860860125      5.81783925457588
|140>   H           5.55666529669378     16.32026792531378      5.92601404403264
|141>   H           8.12137936126170     15.82915071739011      6.04691983116934
|142>   H           8.88340751260040     13.39301051254411      5.95718093741901
|143>   H           5.55112496931244     20.54465171483197      5.89802930638467
|144>   H           5.50021220526670     25.88454219892778      5.84442390609092
|145>   H           8.88155474731077     23.53625815645305      5.96078377250969
|146>   H           8.12665253930666     21.07503967388237      6.03008642352128
|147>   H           6.87153847696724     27.69935075021725      9.41055900976824
|148>   H          12.07630159010847      8.98295315969924      8.73036148492278
|149>   H          10.74068528609324     11.68227028766928      5.80079464309598
|150>   H          10.69308929819018     16.39285112075814      6.01805760361782
|151>   H          13.21976136047658     15.84121782692953      5.96149715425687
|152>   H          13.52199610190989     11.98478272694024      5.82459462766046
|153>   H          10.70973534268590     20.52287415710337      6.01163999143595
|154>   H          10.73151484430573     25.22532630645899      5.80843844734184
|155>   H          13.48365559018798     24.92425360433309      5.82151261285051
|156>   H          13.23248492819968     21.08285615182463      5.95940212662509
|157>   H          12.06283167568617     27.94064216903737      8.71867439803010
|158>   H          15.82964391825647     11.79602643859406      9.37893968695340
|159>   H          17.85481826632826     15.52620597911616      9.43545854618712
|160>   H          16.85623456867570     17.52758619148333      5.82324173140651
|161>   H          15.83352188761615     25.14601832187580      9.34477805106944
|162>   H          18.45703587874544     20.98340244900969      8.58634369999603
|163>   H          15.62429882732294     20.09094604349660      5.75504359574310
|164>   N           5.97042554300180     21.62604918933430     12.19206016469021
|165>   C           5.51653390573314     22.91555018932882     12.02254462119732
|166>   N           6.46982225933312     23.82152860125147     11.64158856586245
|167>   C           7.83732102946889     23.61065406709154     11.52191545109714
|168>   C           8.21695043105540     22.23949291288329     11.70191643363013
|169>   C           7.28849765057361     21.32142147111961     12.03733954579406
|170>   O           4.35375375603397     23.23228891787389     12.20984407747930
|171>   O           8.58399144640029     24.55290726968975     11.29492509168897
|172>   C           5.00190006275533     20.67183216304997     12.80900922351685
|173>   C           3.85856064138131     20.26303018154847     11.89838985197387
|174>   C           4.28922065167962     18.91498499398032     11.33696583610162
|175>   C           5.24028095787236     18.37944392269554     12.40133639495542
|176>   O           3.23125614256831     18.00229004630338     11.14388497495054
|177>   O           5.67227667086428     19.50734544280294     13.16943161110168
|178>   C           6.42458307997607     17.66671564287321     11.80003473851263
|179>   O           7.28490735305207     17.19199677181353     12.81737106335941
|180>   P           8.88913399054341     17.38437445682687     12.67212747458237
|181>   O           9.18871497105068     18.73529051911327     12.10962318380939
|182>   O           9.44847204946679     16.94056293426855     13.97465881330761
|183>   O           9.27736408205633     16.27179510108540     11.55515306779895
|184>   H           6.14102648592789     24.77156773062546     11.52786935619390
|185>   H           9.25392999985334     21.95868973921919     11.59258984390373
|186>   H           7.56757700442382     20.28979312095872     12.21311797174767
|187>   H           4.64415448750069     21.17645138607905     13.70855147644262
|188>   H           2.96452555002676     20.11690349314021     12.50830293299771
|189>   H           3.63940628545222     21.00705376613264     11.13750089605748
|190>   H           4.83067247422324     19.05175060987375     10.39906923894638
|191>   H           4.69646521470303     17.70387759544271     13.07070743245791
|192>   H           2.81268981816424     18.19809819138660     10.29908087037499
|193>   H           6.05194817039958     16.82136468473307     11.21042962345228
|194>   H           6.95996517159365     18.34713510353225     11.13227759217084
|195>   H           9.52370593008864     16.68910378113484     10.72143022676559
|196> *
|197> 
|198>                          ****END OF INPUT****
================================================================================

                       *****************************
                       * Geometry Optimization Run *
                       *****************************

Geometry optimization settings:
Update method            Update   .... BFGS
Choice of coordinates    CoordSys .... (2022) Redundant Internals
Initial Hessian          InHess   .... Almloef's Model
Max. no of cycles        MaxIter  .... 474

Convergence Tolerances:
Energy Change            TolE     ....  5.0000e-06 Eh
Max. Gradient            TolMAXG  ....  3.0000e-04 Eh/bohr
RMS Gradient             TolRMSG  ....  1.0000e-04 Eh/bohr
Max. Displacement        TolMAXD  ....  4.0000e-03 bohr
RMS Displacement         TolRMSD  ....  2.0000e-03 bohr
Strict Convergence                .... False

------------------------------------------------------------------------------
                        ORCA OPTIMIZATION COORDINATE SETUP
------------------------------------------------------------------------------

The optimization will be done in redundant internal coordinates (2022)
Making redundant internal coordinates   ...  (2022 redundants) done
Evaluating the initial hessian          ...  (Almloef) done
Evaluating the coordinates              ...  done
Calculating the B-matrix                .... done
Calculating the G-matrix                .... done
Will constrain atom 4 coordinate 1 
Will constrain atom 4 coordinate 2 
Will constrain atom 4 coordinate 3 
Will constrain atom 6 coordinate 1 
Will constrain atom 6 coordinate 2 
Will constrain atom 6 coordinate 3 
Will constrain atom 15 coordinate 1 
Will constrain atom 15 coordinate 2 
Will constrain atom 15 coordinate 3 
Will constrain atom 16 coordinate 1 
Will constrain atom 16 coordinate 2 
Will constrain atom 16 coordinate 3 
Will constrain atom 17 coordinate 1 
Will constrain atom 17 coordinate 2 
Will constrain atom 17 coordinate 3 
Will constrain atom 25 coordinate 1 
Will constrain atom 25 coordinate 2 
Will constrain atom 25 coordinate 3 
Will constrain atom 28 coordinate 1 
Will constrain atom 28 coordinate 2 
Will constrain atom 28 coordinate 3 
Will constrain atom 40 coordinate 1 
Will constrain atom 40 coordinate 2 
Will constrain atom 40 coordinate 3 
Will constrain atom 41 coordinate 1 
Will constrain atom 41 coordinate 2 
Will constrain atom 41 coordinate 3 
Will constrain atom 54 coordinate 1 
Will constrain atom 54 coordinate 2 
Will constrain atom 54 coordinate 3 
Will constrain atom 57 coordinate 1 
Will constrain atom 57 coordinate 2 
Will constrain atom 57 coordinate 3 
Will constrain atom 59 coordinate 1 
Will constrain atom 59 coordinate 2 
Will constrain atom 59 coordinate 3 
Will constrain atom 69 coordinate 1 
Will constrain atom 69 coordinate 2 
Will constrain atom 69 coordinate 3 
Will constrain atom 70 coordinate 1 
Will constrain atom 70 coordinate 2 
Will constrain atom 70 coordinate 3 
Will constrain atom 73 coordinate 1 
Will constrain atom 73 coordinate 2 
Will constrain atom 73 coordinate 3 
Will constrain atom 81 coordinate 1 
Will constrain atom 81 coordinate 2 
Will constrain atom 81 coordinate 3 
Will constrain atom 85 coordinate 1 
Will constrain atom 85 coordinate 2 
Will constrain atom 85 coordinate 3 
Will constrain atom 88 coordinate 1 
Will constrain atom 88 coordinate 2 
Will constrain atom 88 coordinate 3 
The number of degrees of freedom        ....  981
Storing new coordinates                 .... done

    -----------------------------------------------------------------
                    Redundant Internal Coordinates


    -----------------------------------------------------------------
         Definition                    Initial Value    Approx d2E/dq
    -----------------------------------------------------------------
      1. B(Si  1,Si  0)                  3.0246         0.029117   
      2. B(Si  2,Si  1)                  3.0405         0.027466   
      3. B(O   3,Si  0)                  1.6199         1.045349   
      4. B(O   4,Si  1)                  1.6330         0.996391   
      5. B(O   4,Si  0)                  1.6299         1.007757   
      6. B(O   5,Si  2)                  1.6219         1.037639   
      7. B(O   6,Si  2)                  1.6321         0.999485   
      8. B(O   6,Si  1)                  1.6225         1.035590   
      9. B(O   7,Si  0)                  1.6372         0.980807   
     10. B(O   8,Si  1)                  1.6432         0.959644   
     11. B(O   9,Si  2)                  1.6326         0.997750   
     12. B(Si 10,Si  0)                  3.0399         0.027524   
     13. B(O  13,Si 10)                  1.6200         1.044871   
     14. B(O  14,Si 11)                  1.6229         1.034070   
     15. B(O  15,Si 12)                  1.6333         0.995251   
     16. B(O  15,Si 10)                  1.6271         1.018040   
     17. B(O  16,Si 10)                  1.6284         1.013330   
     18. B(O  16,Si  0)                  1.6204         1.043567   
     19. B(O  17,Si 11)                  1.6330         0.996326   
     20. B(O  17,Si 12)                  1.6314         1.001937   
     21. B(O  18,Si 10)                  1.6287         1.012021   
     22. B(O  19,Si 11)                  1.6316         1.001459   
     23. B(O  20,Si 12)                  1.6328         0.997055   
     24. B(Si 21,Si  2)                  3.0234         0.029245   
     25. B(Si 22,Si  1)                  3.0393         0.027589   
     26. B(Si 23,Si 22)                  3.0420         0.027318   
     27. B(O  25,Si 21)                  1.6357         0.986485   
     28. B(O  25,Si  2)                  1.6258         1.022837   
     29. B(O  26,Si 22)                  1.6285         1.012756   
     30. B(O  26,Si  1)                  1.6320         0.999712   
     31. B(O  27,Si 22)                  1.6341         0.992243   
     32. B(O  27,Si 23)                  1.6274         1.017001   
     33. B(O  28,Si 21)                  1.6326         0.997551   
     34. B(O  28,Si 24)                  1.6261         1.021863   
     35. B(O  29,Si 21)                  1.6221         1.036900   
     36. B(O  30,Si 24)                  1.6402         0.970312   
     37. B(O  30,Si 23)                  1.6274         1.016940   
     38. B(O  31,Si 21)                  1.6251         1.025594   
     39. B(O  32,Si 22)                  1.6337         0.993749   
     40. B(O  33,Si 23)                  1.6430         0.960261   
     41. B(O  34,Si 24)                  1.6378         0.978686   
     42. B(Si 38,Si 35)                  3.0407         0.027447   
     43. B(O  39,Si 12)                  1.6305         1.005377   
     44. B(O  39,Si 35)                  1.6292         1.010248   
     45. B(O  40,Si 36)                  1.6324         0.998568   
     46. B(O  40,Si 11)                  1.6198         1.045726   
     47. B(O  41,Si 36)                  1.6296         1.008809   
     48. B(O  41,Si 37)                  1.6234         1.031827   
     49. B(O  42,Si 35)                  1.6296         1.008774   
     50. B(O  42,Si 38)                  1.6267         1.019695   
     51. B(O  43,Si 22)                  1.6213         1.039826   
     52. B(O  43,Si 35)                  1.6234         1.032177   
     53. B(O  44,Si 37)                  1.6350         0.989022   
     54. B(O  44,Si 38)                  1.6235         1.031504   
     55. B(O  45,Si 35)                  1.6325         0.998057   
     56. B(O  46,Si 36)                  1.6254         1.024409   
     57. B(O  47,Si 37)                  1.6423         0.962840   
     58. B(O  48,Si 38)                  1.6457         0.950759   
     59. B(O  49,Si 36)                  1.6240         1.029796   
     60. B(Si 50,Si 24)                  3.0366         0.027865   
     61. B(Si 53,O  43)                 10.0754         0.010000   
     62. B(Si 53,Si 50)                  3.0387         0.027650   
     63. B(O  54,Si 50)                  1.6342         0.991867   
     64. B(O  54,Si 24)                  1.6382         0.977445   
     65. B(O  55,Si 23)                  1.6336         0.993902   
     66. B(O  55,Si 51)                  1.6393         0.973527   
     67. B(O  56,Si 51)                  1.6286         1.012388   
     68. B(O  56,Si 52)                  1.6446         0.954591   
     69. B(O  57,Si 50)                  1.6259         1.022414   
     70. B(O  57,Si 53)                  1.6337         0.993662   
     71. B(O  58,Si 50)                  1.6230         1.033326   
     72. B(O  59,Si 52)                  1.6402         0.970137   
     73. B(O  59,Si 53)                  1.6299         1.007639   
     74. B(O  60,Si 50)                  1.6319         1.000229   
     75. B(O  61,Si 51)                  1.6340         0.992746   
     76. B(O  62,Si 52)                  1.6263         1.021035   
     77. B(O  63,Si 53)                  1.6258         1.022878   
     78. B(Si 65,Si 37)                  3.0356         0.027964   
     79. B(Si 66,Si 65)                  3.0335         0.028183   
     80. B(Si 66,Si 53)                 12.3263         0.010000   
     81. B(Si 66,O  43)                 10.0727         0.010000   
     82. B(Si 67,Si 64)                  3.0417         0.027352   
     83. B(O  68,Si 38)                  1.6279         1.014968   
     84. B(O  68,Si 64)                  1.6298         1.007952   
     85. B(O  69,Si 37)                  1.6383         0.976896   
     86. B(O  69,Si 65)                  1.6314         1.002097   
     87. B(O  70,Si 65)                  1.6275         1.016599   
     88. B(O  70,Si 66)                  1.6327         0.997285   
     89. B(O  71,Si 64)                  1.6318         1.000700   
     90. B(O  71,Si 67)                  1.6378         0.978642   
     91. B(O  72,Si 51)                  1.6288         1.011664   
     92. B(O  72,Si 64)                  1.6294         1.009553   
     93. B(O  73,Si 66)                  1.6325         0.998134   
     94. B(O  73,Si 67)                  1.6359         0.985755   
     95. B(O  74,Si 64)                  1.6358         0.986092   
     96. B(O  75,Si 65)                  1.6327         0.997375   
     97. B(O  76,Si 66)                  1.6252         1.025106   
     98. B(O  77,Si 67)                  1.6365         0.983515   
     99. B(O  78,Si 65)                  1.6233         1.032556   
    100. B(O  80,Si 53)                  1.6245         1.027919   
    101. B(O  81,Si 52)                  1.6314         1.002109   
    102. B(O  81,Si 79)                  1.6293         1.009755   
    103. B(O  82,Si 79)                  1.6234         1.031828   
    104. B(O  83,Si 79)                  1.6266         1.019814   
    105. B(Si 84,Si 67)                  3.0384         0.027681   
    106. B(Si 84,Si 79)                  3.0162         0.030030   
    107. B(O  85,Si 67)                  1.6321         0.999344   
    108. B(O  85,Si 84)                  1.6303         1.006223   
    109. B(O  86,Si 66)                  1.6236         1.031095   
    110. B(O  87,Si 84)                  1.6242         1.029038   
    111. B(O  88,Si 79)                  1.6365         0.983402   
    112. B(O  88,Si 84)                  1.6271         1.017884   
    113. B(O  89,Si 84)                  1.6330         0.996318   
    114. B(H  90,O   3)                  0.9620         0.516059   
    115. B(H  91,O   5)                  0.9616         0.516859   
    116. B(H  92,O  18)                  2.1945         0.010000   
    117. B(H  92,O   7)                  0.9666         0.507582   
    118. B(H  93,O   7)                  1.9705         0.012701   
    119. B(H  93,O   8)                  0.9725         0.496623   
    120. B(H  94,O   8)                  2.1719         0.010000   
    121. B(H  94,O   9)                  0.9666         0.507549   
    122. B(H  95,O  13)                  0.9615         0.517128   
    123. B(H  96,O  14)                  0.9612         0.517582   
    124. B(H  97,O  18)                  0.9616         0.516853   
    125. B(H  98,O  19)                  0.9611         0.517842   
    126. B(H  99,O  20)                  0.9612         0.517736   
    127. B(H 100,O  29)                  0.9609         0.518192   
    128. B(H 101,O   9)                  2.0960         0.010000   
    129. B(H 101,O  31)                  0.9674         0.506022   
    130. B(H 102,O   8)                  2.0900         0.010000   
    131. B(H 102,O  32)                  0.9691         0.502918   
    132. B(H 103,O  32)                  2.0053         0.011174   
    133. B(H 103,O  33)                  0.9728         0.496027   
    134. B(H 104,O  33)                  2.0849         0.010000   
    135. B(H 104,O  34)                  0.9684         0.504131   
    136. B(H 105,O  20)                  2.0142         0.010815   
    137. B(H 105,O  45)                  0.9698         0.501544   
    138. B(H 106,O  19)                  2.1069         0.010000   
    139. B(H 106,O  46)                  0.9668         0.507082   
    140. B(H 107,O  47)                  0.9682         0.504561   
    141. B(H 107,O  48)                  2.1034         0.010000   
    142. B(H 108,O  48)                  0.9722         0.497214   
    143. B(H 108,O  45)                  2.0146         0.010799   
    144. B(H 109,O  49)                  0.9612         0.517746   
    145. B(H 110,O  58)                  0.9613         0.517472   
    146. B(H 111,O  60)                  0.9705         0.500261   
    147. B(H 111,O  34)                  1.9880         0.011908   
    148. B(H 112,O  61)                  0.9686         0.503848   
    149. B(H 112,O  33)                  2.0835         0.010000   
    150. B(H 113,O  62)                  0.9692         0.502700   
    151. B(H 113,O  61)                  1.9925         0.011713   
    152. B(H 114,O  63)                  0.9667         0.507387   
    153. B(H 114,O  60)                  2.1619         0.010000   
    154. B(H 115,O  74)                  0.9689         0.503280   
    155. B(H 115,O  48)                  2.0891         0.010000   
    156. B(H 116,O  75)                  0.9714         0.498582   
    157. B(H 116,O  47)                  1.9707         0.012692   
    158. B(H 117,O  76)                  0.9673         0.506116   
    159. B(H 117,O  75)                  2.1269         0.010000   
    160. B(H 118,O  77)                  0.9710         0.499343   
    161. B(H 118,O  74)                  1.9872         0.011945   
    162. B(H 119,O  78)                  0.9613         0.517498   
    163. B(H 120,O  80)                  0.9609         0.518251   
    164. B(H 121,O  82)                  0.9608         0.518420   
    165. B(H 122,O  83)                  0.9666         0.507487   
    166. B(H 122,O  89)                  2.1451         0.010000   
    167. B(H 123,O  86)                  0.9610         0.518051   
    168. B(H 124,O  87)                  0.9615         0.517044   
    169. B(H 125,O  89)                  0.9685         0.504028   
    170. B(H 125,O  77)                  2.1000         0.010000   
    171. B(C 127,N 126)                  1.3775         0.585846   
    172. B(N 128,C 127)                  1.3692         0.604054   
    173. B(C 129,N 128)                  1.3888         0.562012   
    174. B(C 130,C 129)                  1.4341         0.531377   
    175. B(C 131,N 126)                  1.3616         0.621054   
    176. B(C 131,C 130)                  1.3481         0.728750   
    177. B(O 132,C 127)                  1.2196         1.046437   
    178. B(O 132,H  96)                  4.4862         0.010000   
    179. B(O 133,C 129)                  1.2235         1.031718   
    180. B(O 133,O  44)                  3.1360         0.010000   
    181. B(C 134,N 126)                  1.4930         0.383236   
    182. B(C 135,C 134)                  1.5178         0.390767   
    183. B(C 136,C 135)                  1.5225         0.384064   
    184. B(C 137,C 136)                  1.5245         0.381152   
    185. B(O 138,C 136)                  1.4105         0.518954   
    186. B(O 139,C 134)                  1.3912         0.557208   
    187. B(O 139,C 137)                  1.4313         0.480740   
    188. B(C 140,C 137)                  1.5074         0.405983   
    189. B(O 141,C 140)                  1.4144         0.511645   
    190. B(P 142,O 141)                  1.6222         0.801406   
    191. B(O 143,P 142)                  1.4937         1.285067   
    192. B(O 144,P 142)                  1.4854         1.324840   
    193. B(O 145,P 142)                  1.6236         0.797299   
    194. B(H 146,N 128)                  1.0117         0.429955   
    195. B(H 147,C 130)                  1.0799         0.373747   
    196. B(H 148,C 131)                  1.0831         0.369385   
    197. B(H 149,C 134)                  1.0917         0.357864   
    198. B(H 150,C 135)                  1.0921         0.357355   
    199. B(H 151,C 135)                  1.0865         0.364717   
    200. B(H 152,C 136)                  1.0916         0.358029   
    201. B(H 152,O  39)                  2.5115         0.010000   
    202. B(H 152,O  43)                  2.5543         0.010000   
    203. B(H 152,O 138)                  2.0529         0.010000   
    204. B(H 153,C 137)                  1.0955         0.352860   
    205. B(H 154,O 138)                  0.9629         0.514391   
    206. B(H 154,O  16)                  2.6193         0.010000   
    207. B(H 155,C 140)                  1.0960         0.352313   
    208. B(H 156,C 140)                  1.0934         0.355642   
    209. B(H 156,O  43)                  2.8380         0.010000   
    210. B(H 156,O 141)                  2.0687         0.010000   
    211. B(H 156,P 142)                  2.6495         0.010000   
    212. B(H 157,O 145)                  0.9643         0.511758   
    213. B(H 157,O  55)                  2.2291         0.010000   
    214. B(H 157,P 142)                  2.1659         0.023245   
    215. A(Si  1,Si  0,Si 10)          124.3039         0.210264   
    216. A(Si 10,Si  0,O  16)           20.7064         0.339327   
    217. A(O   3,Si  0,O   4)          109.8803         0.608459   
    218. A(O   7,Si  0,O  16)          110.8871         0.605082   
    219. A(O   4,Si  0,O   7)          105.1205         0.601019   
    220. A(O   7,Si  0,Si 10)           92.1023         0.335838   
    221. A(Si  1,Si  0,O   7)           83.5558         0.339001   
    222. A(Si  1,Si  0,O  16)          115.9502         0.342536   
    223. A(O   3,Si  0,O  16)          105.7865         0.612580   
    224. A(Si  1,Si  0,O   3)          124.6278         0.342633   
    225. A(O   4,Si  0,Si 10)          126.6353         0.337357   
    226. A(O   4,Si  0,O  16)          110.9763         0.608258   
    227. A(O   3,Si  0,Si 10)          107.7033         0.339424   
    228. A(Si  1,Si  0,O   4)           22.0506         0.340540   
    229. A(O   3,Si  0,O   7)          114.2818         0.605281   
    230. A(O   8,Si  1,O  26)          107.8075         0.597574   
    231. A(O   6,Si  1,O   8)          107.8685         0.601649   
    232. A(Si  2,Si  1,O   6)           20.9607         0.338774   
    233. A(O   4,Si  1,Si 22)          124.5999         0.336852   
    234. A(Si  0,Si  1,Si  2)          123.3029         0.210206   
    235. A(Si  2,Si  1,Si 22)          117.6285         0.208736   
    236. A(O   6,Si  1,O  26)          108.6510         0.606418   
    237. A(O   6,Si  1,Si 22)          113.1479         0.339026   
    238. A(Si  0,Si  1,O   6)          126.1092         0.342096   
    239. A(Si 22,Si  1,O  26)           21.2054         0.337039   
    240. A(Si  0,Si  1,Si 22)          118.6427         0.210328   
    241. A(O   4,Si  1,O   6)          110.6696         0.606028   
    242. A(Si  2,Si  1,O  26)          120.8837         0.336788   
    243. A(Si  2,Si  1,O   4)          115.5534         0.336602   
    244. A(Si  0,Si  1,O   8)           89.1248         0.337770   
    245. A(O   4,Si  1,O  26)          111.7198         0.601918   
    246. A(O   4,Si  1,O   8)          110.0002         0.597191   
    247. A(Si  2,Si  1,O   8)           87.3844         0.334505   
    248. A(Si  0,Si  1,O  26)          113.9559         0.340084   
    249. A(Si  0,Si  1,O   4)           22.0067         0.339895   
    250. A(O   8,Si  1,Si 22)           86.9372         0.334753   
    251. A(O   6,Si  2,O   9)          110.0865         0.602050   
    252. A(Si  1,Si  2,O  25)          125.5574         0.338074   
    253. A(O   5,Si  2,Si 21)          122.2190         0.342460   
    254. A(Si  1,Si  2,O   6)           20.8308         0.336776   
    255. A(O   9,Si  2,Si 21)           85.8042         0.340222   
    256. A(O   9,Si  2,O  25)          107.5789         0.604739   
    257. A(Si  1,Si  2,O   5)          112.0277         0.338886   
    258. A(Si  1,Si  2,Si 21)          123.9212         0.210327   
    259. A(O   5,Si  2,O   9)          108.1751         0.606419   
    260. A(Si  1,Si  2,O   9)           90.5040         0.336678   
    261. A(O   5,Si  2,O  25)          109.9862         0.609335   
    262. A(O   5,Si  2,O   6)          110.3836         0.606622   
    263. A(O   6,Si  2,O  25)          110.5579         0.604942   
    264. A(Si 21,Si  2,O  25)           22.0972         0.341638   
    265. A(O   6,Si  2,Si 21)          116.5083         0.340320   
    266. A(Si  0,O   3,H  90)          118.0165         0.437625   
    267. A(Si  0,O   4,Si  1)          135.9428         0.602850   
    268. A(Si  2,O   5,H  91)          118.3875         0.437164   
    269. A(Si  1,O   6,Si  2)          138.2085         0.606391   
    270. A(Si  0,O   7,H  92)          115.8012         0.431347   
    271. A(Si  1,O   8,H  93)          114.0986         0.427982   
    272. A(Si  2,O   9,H  94)          115.8723         0.432672   
    273. A(O  16,Si 10,O  18)          103.6759         0.605307   
    274. A(Si  0,Si 10,O  16)           20.6000         0.337667   
    275. A(Si  0,Si 10,O  18)           83.1311         0.337594   
    276. A(Si  0,Si 10,O  13)          118.0018         0.339398   
    277. A(Si  0,Si 10,O  15)          121.5227         0.337928   
    278. A(O  15,Si 10,O  16)          110.7089         0.606000   
    279. A(O  13,Si 10,O  18)          109.9545         0.608902   
    280. A(O  15,Si 10,O  18)          112.9218         0.605849   
    281. A(O  13,Si 10,O  16)          111.1119         0.609054   
    282. A(O  13,Si 10,O  15)          108.4466         0.609600   
    283. A(O  14,Si 11,O  19)          109.9745         0.606450   
    284. A(O  17,Si 11,O  19)          112.9102         0.602113   
    285. A(O  17,Si 11,O  40)          110.8203         0.607161   
    286. A(O  14,Si 11,O  40)          110.6543         0.611541   
    287. A(O  19,Si 11,O  40)          103.5628         0.607764   
    288. A(O  14,Si 11,O  17)          108.8526         0.605848   
    289. A(O  17,Si 12,O  39)          108.4070         0.603220   
    290. A(O  15,Si 12,O  17)          110.1992         0.602043   
    291. A(O  20,Si 12,O  39)          103.2822         0.602652   
    292. A(O  15,Si 12,O  39)          111.7479         0.602442   
    293. A(O  17,Si 12,O  20)          112.0770         0.602254   
    294. A(O  15,Si 12,O  20)          110.9431         0.601477   
    295. A(Si 10,O  13,H  95)          118.1391         0.437753   
    296. A(Si 11,O  14,H  96)          117.6943         0.437002   
    297. A(Si 10,O  15,Si 12)          144.8247         0.603898   
    298. A(Si  0,O  16,Si 10)          138.6936         0.608907   
    299. A(Si  0,O  16,H 154)          102.8988         0.176849   
    300. A(Si 10,O  16,H 154)          112.0599         0.176266   
    301. A(Si 11,O  17,Si 12)          140.7111         0.602169   
    302. A(Si 10,O  18,H  97)          119.4495         0.435199   
    303. A(Si 11,O  19,H  98)          119.9411         0.434527   
    304. A(Si 12,O  20,H  99)          120.9507         0.434166   
    305. A(Si  2,Si 21,O  28)          110.9522         0.340210   
    306. A(Si  2,Si 21,O  29)          126.7525         0.342420   
    307. A(O  29,Si 21,O  31)          106.9128         0.609568   
    308. A(O  25,Si 21,O  28)          110.0669         0.600509   
    309. A(O  25,Si 21,O  29)          109.8205         0.605008   
    310. A(O  28,Si 21,O  29)          108.8002         0.606312   
    311. A(O  28,Si 21,O  31)          112.0119         0.605030   
    312. A(Si  2,Si 21,O  31)           89.3982         0.341792   
    313. A(Si  2,Si 21,O  25)           21.9572         0.339577   
    314. A(O  25,Si 21,O  31)          109.1660         0.603729   
    315. A(O  26,Si 22,O  27)          110.8337         0.602940   
    316. A(Si  1,Si 22,O  32)           89.0361         0.336703   
    317. A(O  26,Si 22,O  32)          110.2575         0.603116   
    318. A(Si 23,Si 22,O  27)           21.0941         0.336065   
    319. A(Si 23,Si 22,O  26)          122.0978         0.337212   
    320. A(Si  1,Si 22,O  27)          118.0725         0.336618   
    321. A(O  27,Si 22,O  43)          108.7830         0.606018   
    322. A(Si  1,Si 22,O  43)          120.6969         0.339257   
    323. A(O  26,Si 22,O  43)          109.4819         0.608418   
    324. A(Si  1,Si 22,O  26)           21.2535         0.337767   
    325. A(Si 23,Si 22,O  43)          115.7602         0.338698   
    326. A(Si 23,Si 22,O  32)           85.4259         0.336150   
    327. A(O  27,Si 22,O  32)          106.3920         0.600741   
    328. A(Si  1,Si 22,Si 23)          121.1953         0.208589   
    329. A(O  32,Si 22,O  43)          111.0524         0.606195   
    330. A(O  27,Si 23,O  55)          109.2504         0.603621   
    331. A(Si 22,Si 23,O  27)           21.1852         0.337447   
    332. A(O  30,Si 23,O  55)          109.5011         0.603614   
    333. A(Si 22,Si 23,O  33)           88.3068         0.334240   
    334. A(Si 22,Si 23,O  30)          121.6255         0.337444   
    335. A(O  27,Si 23,O  30)          112.0522         0.606297   
    336. A(O  27,Si 23,O  33)          109.4863         0.599626   
    337. A(O  30,Si 23,O  33)          108.1358         0.599619   
    338. A(Si 22,Si 23,O  55)          117.5746         0.336158   
    339. A(O  33,Si 23,O  55)          108.3389         0.596978   
    340. A(O  28,Si 24,O  34)          111.9566         0.602381   
    341. A(O  30,Si 24,O  34)          108.3843         0.596401   
    342. A(O  28,Si 24,O  54)          110.2088         0.602234   
    343. A(Si 50,Si 24,O  54)           21.8549         0.336334   
    344. A(O  30,Si 24,Si 50)          115.0615         0.335924   
    345. A(O  28,Si 24,Si 50)          125.3119         0.338834   
    346. A(O  34,Si 24,Si 50)           84.7534         0.336405   
    347. A(O  30,Si 24,O  54)          112.3600         0.596256   
    348. A(O  34,Si 24,O  54)          105.7833         0.597243   
    349. A(O  28,Si 24,O  30)          108.1746         0.601384   
    350. A(Si  2,O  25,Si 21)          135.9456         0.603415   
    351. A(Si  1,O  26,Si 22)          137.5411         0.603813   
    352. A(Si 22,O  27,Si 23)          137.7207         0.603427   
    353. A(Si 21,O  28,Si 24)          144.9467         0.604605   
    354. A(Si 21,O  29,H 100)          117.5049         0.437311   
    355. A(Si 23,O  30,Si 24)          138.3095         0.600824   
    356. A(Si 21,O  31,H 101)          114.2972         0.434583   
    357. A(Si 22,O  32,H 102)          115.3179         0.431648   
    358. A(Si 23,O  33,H 103)          114.0472         0.427939   
    359. A(Si 24,O  34,H 104)          115.1938         0.430651   
    360. A(O  42,Si 35,O  43)          108.4252         0.607088   
    361. A(Si 38,Si 35,O  45)           86.0098         0.336656   
    362. A(O  39,Si 35,O  45)          110.4358         0.603331   
    363. A(O  42,Si 35,O  45)          106.8455         0.603161   
    364. A(O  43,Si 35,O  45)          111.0331         0.605837   
    365. A(Si 38,Si 35,O  43)          115.5693         0.338547   
    366. A(Si 38,Si 35,O  42)           20.9443         0.337255   
    367. A(O  39,Si 35,O  42)          110.6823         0.604576   
    368. A(O  39,Si 35,O  43)          109.3792         0.607259   
    369. A(Si 38,Si 35,O  39)          121.8613         0.337338   
    370. A(O  40,Si 36,O  46)          108.7949         0.605014   
    371. A(O  41,Si 36,O  46)          112.1456         0.606207   
    372. A(O  40,Si 36,O  49)          109.8515         0.605627   
    373. A(O  41,Si 36,O  49)          108.4215         0.606821   
    374. A(O  46,Si 36,O  49)          107.1750         0.608623   
    375. A(O  40,Si 36,O  41)          110.3875         0.603225   
    376. A(O  41,Si 37,O  47)          111.4740         0.601613   
    377. A(O  44,Si 37,O  47)          107.6161         0.596720   
    378. A(O  41,Si 37,O  69)          110.3340         0.603297   
    379. A(O  41,Si 37,Si 65)          125.2950         0.339585   
    380. A(O  47,Si 37,Si 65)           84.2540         0.335691   
    381. A(O  44,Si 37,Si 65)          115.3515         0.337194   
    382. A(O  44,Si 37,O  69)          113.2755         0.598388   
    383. A(O  47,Si 37,O  69)          105.1295         0.595305   
    384. A(O  41,Si 37,O  44)          108.9671         0.604735   
    385. A(Si 65,Si 37,O  69)           21.7646         0.336502   
    386. A(Si 35,Si 38,O  44)          121.6922         0.338511   
    387. A(O  42,Si 38,O  44)          112.2822         0.608276   
    388. A(Si 35,Si 38,O  48)           88.1418         0.333950   
    389. A(O  42,Si 38,O  48)          109.1184         0.598783   
    390. A(O  44,Si 38,O  48)          107.8920         0.600114   
    391. A(O  42,Si 38,O  68)          109.8021         0.606380   
    392. A(O  48,Si 38,O  68)          108.2528         0.598247   
    393. A(Si 35,Si 38,O  68)          117.9634         0.337600   
    394. A(O  44,Si 38,O  68)          109.3935         0.607730   
    395. A(Si 35,Si 38,O  42)           20.9838         0.337861   
    396. A(Si 12,O  39,H 152)          127.7015         0.184285   
    397. A(Si 35,O  39,H 152)           89.4377         0.184389   
    398. A(Si 12,O  39,Si 35)          138.3627         0.604183   
    399. A(Si 11,O  40,Si 36)          140.4039         0.607425   
    400. A(Si 36,O  41,Si 37)          145.6111         0.607052   
    401. A(Si 35,O  42,Si 38)          138.0718         0.605663   
    402. A(Si 22,O  43,Si 35)          149.9082         0.610655   
    403. A(Si 22,O  43,H 152)          113.8561         0.181658   
    404. A(Si 35,O  43,H 152)           88.0784         0.181503   
    405. A(Si 22,O  43,H 156)          102.3109         0.162185   
    406. A(Si 35,O  43,H 156)          107.5719         0.162063   
    407. A(H 152,O  43,H 156)           51.5743         0.101978   
    408. A(Si 37,O  44,Si 38)          139.8340         0.604698   
    409. A(Si 35,O  45,H 105)          114.8772         0.431771   
    410. A(Si 36,O  46,H 106)          114.2434         0.434657   
    411. A(Si 37,O  47,H 107)          114.8645         0.429457   
    412. A(Si 38,O  48,H 108)          114.1191         0.427360   
    413. A(Si 36,O  49,H 109)          117.1910         0.436701   
    414. A(Si 24,Si 50,Si 53)          123.5480         0.209188   
    415. A(Si 24,Si 50,O  54)           21.9110         0.337155   
    416. A(Si 53,Si 50,O  54)          126.3839         0.336721   
    417. A(Si 24,Si 50,O  57)          115.1192         0.338865   
    418. A(Si 53,Si 50,O  57)           21.2696         0.338428   
    419. A(O  54,Si 50,O  57)          110.4790         0.604001   
    420. A(O  54,Si 50,O  60)          109.9689         0.601450   
    421. A(O  58,Si 50,O  60)          107.5106         0.606222   
    422. A(Si 24,Si 50,O  58)          123.2469         0.339466   
    423. A(Si 53,Si 50,O  58)          111.0454         0.339028   
    424. A(O  54,Si 50,O  58)          109.7378         0.605240   
    425. A(O  57,Si 50,O  58)          109.9654         0.608796   
    426. A(Si 24,Si 50,O  60)           88.6477         0.337627   
    427. A(Si 53,Si 50,O  60)           89.1374         0.337192   
    428. A(O  57,Si 50,O  60)          109.1260         0.604981   
    429. A(O  55,Si 51,O  56)          109.9052         0.600688   
    430. A(O  55,Si 51,O  61)          109.1084         0.598423   
    431. A(O  56,Si 51,O  61)          107.5528         0.602957   
    432. A(O  55,Si 51,O  72)          109.7250         0.600605   
    433. A(O  56,Si 51,O  72)          110.0021         0.605157   
    434. A(O  61,Si 51,O  72)          110.5146         0.602873   
    435. A(O  56,Si 52,O  59)          111.7216         0.593526   
    436. A(O  56,Si 52,O  62)          108.5378         0.599399   
    437. A(O  59,Si 52,O  62)          109.2524         0.601269   
    438. A(O  62,Si 52,O  81)          110.4033         0.605042   
    439. A(O  56,Si 52,O  81)          107.0321         0.597242   
    440. A(O  59,Si 52,O  81)          109.8691         0.599104   
    441. A(Si 50,Si 53,O  57)           21.1636         0.336822   
    442. A(O  57,Si 53,O  59)          110.2550         0.602517   
    443. A(Si 50,Si 53,O  63)           87.5826         0.338453   
    444. A(O  57,Si 53,O  63)          108.7267         0.604265   
    445. A(O  59,Si 53,O  63)          113.1524         0.605896   
    446. A(Si 50,Si 53,O  80)          117.8144         0.338731   
    447. A(O  57,Si 53,O  80)          110.6464         0.604838   
    448. A(Si 50,Si 53,O  59)          121.8285         0.337607   
    449. A(O  59,Si 53,O  80)          107.4963         0.606472   
    450. A(O  63,Si 53,O  80)          106.5027         0.608233   
    451. A(Si 24,O  54,Si 50)          136.2341         0.598785   
    452. A(Si 23,O  55,Si 51)          137.8650         0.598558   
    453. A(Si 23,O  55,H 157)          100.6126         0.209185   
    454. A(Si 51,O  55,H 157)          120.5595         0.208623   
    455. A(Si 51,O  56,Si 52)          136.9605         0.598418   
    456. A(Si 50,O  57,Si 53)          137.5668         0.604212   
    457. A(Si 50,O  58,H 110)          117.7882         0.436929   
    458. A(Si 52,O  59,Si 53)          143.5237         0.599740   
    459. A(Si 50,O  60,H 111)          113.8313         0.431741   
    460. A(Si 51,O  61,H 112)          115.7568         0.431713   
    461. A(Si 52,O  62,H 113)          114.2476         0.433721   
    462. A(Si 53,O  63,H 114)          114.7826         0.434587   
    463. A(Si 67,Si 64,O  72)          115.5943         0.337104   
    464. A(O  68,Si 64,O  72)          110.0898         0.604401   
    465. A(O  71,Si 64,O  72)          110.0736         0.603559   
    466. A(Si 67,Si 64,O  74)           85.7912         0.335787   
    467. A(O  68,Si 64,O  74)          109.4683         0.601665   
    468. A(O  71,Si 64,O  74)          106.9779         0.600828   
    469. A(O  72,Si 64,O  74)          110.5611         0.601849   
    470. A(Si 67,Si 64,O  68)          122.2322         0.337015   
    471. A(Si 67,Si 64,O  71)           21.5644         0.336610   
    472. A(O  68,Si 64,O  71)          109.6146         0.603374   
    473. A(Si 37,Si 65,Si 66)          123.5392         0.209806   
    474. A(Si 37,Si 65,O  69)           21.8619         0.337933   
    475. A(Si 37,Si 65,O  70)          115.1456         0.338744   
    476. A(Si 66,Si 65,O  70)           21.5289         0.339185   
    477. A(O  69,Si 65,O  70)          110.5421         0.604532   
    478. A(Si 37,Si 65,O  75)           88.7213         0.337667   
    479. A(Si 66,Si 65,O  75)           88.7079         0.338106   
    480. A(O  69,Si 65,O  75)          109.9993         0.602310   
    481. A(O  70,Si 65,O  75)          108.9807         0.603982   
    482. A(Si 37,Si 65,O  78)          123.3791         0.339625   
    483. A(Si 66,Si 65,O  78)          111.0229         0.340068   
    484. A(Si 66,Si 65,O  69)          126.5306         0.338372   
    485. A(O  69,Si 65,O  78)          109.8962         0.606353   
    486. A(O  70,Si 65,O  78)          109.8788         0.608038   
    487. A(O  75,Si 65,O  78)          107.4857         0.605800   
    488. A(O  70,Si 66,O  86)          110.8743         0.605624   
    489. A(O  73,Si 66,O  86)          107.3914         0.605724   
    490. A(O  76,Si 66,O  86)          106.7602         0.608851   
    491. A(Si 65,Si 66,O  70)           21.4566         0.338101   
    492. A(Si 65,Si 66,O  73)          121.9623         0.338149   
    493. A(O  70,Si 66,O  73)          110.1751         0.601839   
    494. A(Si 65,Si 66,O  76)           87.4527         0.339657   
    495. A(O  70,Si 66,O  76)          108.8769         0.604943   
    496. A(Si 65,Si 66,O  86)          118.0370         0.339988   
    497. A(O  73,Si 66,O  76)          112.7188         0.605043   
    498. A(Si 64,Si 67,Si 84)          118.0817         0.208714   
    499. A(O  71,Si 67,Si 84)          119.8449         0.336032   
    500. A(O  73,Si 67,Si 84)          115.8979         0.336437   
    501. A(Si 64,Si 67,O  85)          114.3670         0.336534   
    502. A(O  71,Si 67,O  85)          108.0483         0.599793   
    503. A(O  73,Si 67,O  85)          110.0491         0.600631   
    504. A(O  77,Si 67,O  85)          107.1399         0.600368   
    505. A(Si 84,Si 67,O  85)           21.3444         0.337205   
    506. A(Si 64,Si 67,O  71)           21.4806         0.335364   
    507. A(Si 64,Si 67,O  73)          123.9004         0.335768   
    508. A(O  77,Si 67,Si 84)           86.1077         0.336310   
    509. A(O  71,Si 67,O  73)          112.1365         0.598213   
    510. A(Si 64,Si 67,O  77)           87.3540         0.335641   
    511. A(O  71,Si 67,O  77)          108.7570         0.597951   
    512. A(O  73,Si 67,O  77)          110.5482         0.598786   
    513. A(Si 38,O  68,Si 64)          138.1897         0.605025   
    514. A(Si 37,O  69,Si 65)          136.3735         0.599905   
    515. A(Si 65,O  70,Si 66)          137.0145         0.603971   
    516. A(Si 64,O  71,Si 67)          136.9550         0.599950   
    517. A(Si 51,O  72,Si 64)          147.8935         0.604830   
    518. A(Si 66,O  73,Si 67)          143.4759         0.600491   
    519. A(Si 64,O  74,H 115)          115.2604         0.431104   
    520. A(Si 65,O  75,H 116)          113.3622         0.431259   
    521. A(Si 66,O  76,H 117)          114.6496         0.434561   
    522. A(Si 67,O  77,H 118)          114.0608         0.430294   
    523. A(Si 65,O  78,H 119)          117.8063         0.436874   
    524. A(O  81,Si 79,O  83)          112.3795         0.605791   
    525. A(O  82,Si 79,O  83)          106.5028         0.608326   
    526. A(O  81,Si 79,Si 84)          109.7769         0.342417   
    527. A(O  82,Si 79,Si 84)          127.4071         0.343660   
    528. A(O  83,Si 79,Si 84)           89.6614         0.342986   
    529. A(O  81,Si 79,O  88)          110.1414         0.601555   
    530. A(O  82,Si 79,O  88)          109.3791         0.604070   
    531. A(O  83,Si 79,O  88)          109.1696         0.602707   
    532. A(O  81,Si 79,O  82)          109.1729         0.607163   
    533. A(Si 84,Si 79,O  88)           22.3869         0.340905   
    534. A(Si 53,O  80,H 120)          117.2731         0.436634   
    535. A(Si 52,O  81,Si 79)          144.9352         0.603746   
    536. A(Si 79,O  82,H 121)          117.2637         0.436959   
    537. A(Si 79,O  83,H 122)          114.3665         0.434368   
    538. A(Si 67,Si 84,Si 79)          125.2881         0.211271   
    539. A(Si 67,Si 84,O  85)           21.3701         0.337591   
    540. A(Si 79,Si 84,O  85)          117.5697         0.342216   
    541. A(Si 79,Si 84,O  87)          121.1710         0.343504   
    542. A(O  85,Si 84,O  87)          110.6506         0.606435   
    543. A(Si 67,Si 84,O  88)          126.1868         0.338240   
    544. A(Si 79,Si 84,O  88)           22.5231         0.342877   
    545. A(O  85,Si 84,O  88)          110.5672         0.605160   
    546. A(O  87,Si 84,O  88)          109.6343         0.607786   
    547. A(Si 67,Si 84,O  89)           89.9012         0.337035   
    548. A(Si 67,Si 84,O  87)          112.0169         0.338856   
    549. A(Si 79,Si 84,O  89)           85.7739         0.341650   
    550. A(O  85,Si 84,O  89)          109.9415         0.602664   
    551. A(O  87,Si 84,O  89)          107.8631         0.605277   
    552. A(O  88,Si 84,O  89)          108.1078         0.604005   
    553. A(Si 67,O  85,Si 84)          137.2855         0.603017   
    554. A(Si 66,O  86,H 123)          117.3917         0.436847   
    555. A(Si 84,O  87,H 124)          118.0393         0.436537   
    556. A(Si 79,O  88,Si 84)          135.0900         0.602486   
    557. A(Si 84,O  89,H 125)          114.4320         0.432019   
    558. A(C 127,N 126,C 131)          120.9574         0.424214   
    559. A(C 127,N 126,C 134)          115.8092         0.389516   
    560. A(C 131,N 126,C 134)          122.1344         0.393512   
    561. A(N 126,C 127,N 128)          115.1024         0.422115   
    562. A(N 126,C 127,O 132)          122.5717         0.466231   
    563. A(N 128,C 127,O 132)          122.3224         0.468853   
    564. A(C 127,N 128,C 129)          127.5213         0.418998   
    565. A(C 127,N 128,H 146)          115.2358         0.356696   
    566. A(C 129,N 128,H 146)          116.9287         0.352360   
    567. A(N 128,C 129,C 130)          113.2667         0.412221   
    568. A(N 128,C 129,O 133)          119.9978         0.461505   
    569. A(C 130,C 129,O 133)          126.7330         0.459861   
    570. A(C 129,C 130,C 131)          120.0028         0.434642   
    571. A(C 129,C 130,H 147)          119.3484         0.346009   
    572. A(C 131,C 130,H 147)          120.6277         0.365055   
    573. A(N 126,C 131,C 130)          122.8602         0.444113   
    574. A(N 126,C 131,H 148)          116.3648         0.352351   
    575. A(C 130,C 131,H 148)          120.7692         0.364323   
    576. A(N 126,C 134,C 135)          114.3863         0.365472   
    577. A(N 126,C 134,O 139)          109.2344         0.386127   
    578. A(C 135,C 134,O 139)          107.0370         0.389914   
    579. A(N 126,C 134,H 149)          104.9301         0.323404   
    580. A(C 135,C 134,H 149)          111.8401         0.326393   
    581. A(O 139,C 134,H 149)          109.3508         0.344128   
    582. A(C 134,C 135,C 136)          104.2793         0.367902   
    583. A(C 134,C 135,H 150)          108.5214         0.326316   
    584. A(C 136,C 135,H 150)          108.6051         0.325389   
    585. A(C 134,C 135,H 151)          112.8092         0.327414   
    586. A(C 136,C 135,H 151)          113.8996         0.326482   
    587. A(H 150,C 135,H 151)          108.5182         0.291072   
    588. A(C 135,C 136,C 137)          103.3000         0.366334   
    589. A(C 135,C 136,O 138)          114.2829         0.383952   
    590. A(C 137,C 136,O 138)          109.6441         0.383444   
    591. A(C 135,C 136,H 152)          110.2563         0.325489   
    592. A(C 137,C 136,H 152)          109.5387         0.325082   
    593. A(O 138,C 136,H 152)          109.6032         0.340080   
    594. A(C 136,C 137,O 139)          106.6258         0.378390   
    595. A(C 136,C 137,C 140)          112.1932         0.369840   
    596. A(O 139,C 137,C 140)          110.4587         0.382554   
    597. A(C 136,C 137,H 153)          109.4831         0.324307   
    598. A(O 139,C 137,H 153)          107.9306         0.334959   
    599. A(C 140,C 137,H 153)          110.0091         0.327692   
    600. A(C 136,O 138,H 154)          108.3335         0.358365   
    601. A(C 134,O 139,C 137)          112.0328         0.401769   
    602. A(C 137,C 140,O 141)          110.4675         0.386723   
    603. A(C 137,C 140,H 155)          108.1909         0.327608   
    604. A(O 141,C 140,H 155)          109.5657         0.338365   
    605. A(C 137,C 140,H 156)          109.5172         0.328117   
    606. A(O 141,C 140,H 156)          110.5060         0.338896   
    607. A(H 155,C 140,H 156)          108.5381         0.289278   
    608. A(C 140,O 141,P 142)          119.8224         0.463218   
    609. A(O 141,P 142,O 143)          109.8346         0.589845   
    610. A(O 141,P 142,O 144)          104.9772         0.593312   
    611. A(O 143,P 142,O 144)          121.6630         0.650197   
    612. A(O 141,P 142,O 145)          102.5206         0.538554   
    613. A(O 143,P 142,O 145)          108.2227         0.589263   
    614. A(O 144,P 142,O 145)          107.9674         0.592726   
    615. A(P 142,O 145,H 157)          111.0586         0.411181   
    616. A(O  39,H 152,C 136)          137.3784         0.148596   
    617. A(O  43,H 152,C 136)          158.5936         0.146513   
    618. A(O  39,H 152,O  43)           63.1887         0.106026   
    619. A(O  16,H 154,O 138)          162.7709         0.147451   
    620. A(O  43,H 156,C 140)          119.9074         0.134357   
    621. A(O  55,H 157,O 145)          142.1755         0.169760   
    622. D(Si  2,Si  1,Si  0,O   3)     22.7977         0.010000   
    623. D(Si  2,Si  1,Si  0,O   4)     75.6331         0.010000   
    624. D(O   4,Si  1,Si  0,O   3)    -52.8354         0.010000   
    625. D(O   5,Si  2,Si  1,Si  0)    -15.2320         0.010000   
    626. D(O   5,Si  2,Si  1,O   4)      8.4933         0.010000   
    627. D(O   6,Si  2,Si  1,Si  0)   -104.8437         0.010000   
    628. D(H  90,O   3,Si  0,Si  1)    -38.2593         0.016161   
    629. D(H  90,O   3,Si  0,O   4)    -56.8095         0.016161   
    630. D(Si  1,O   4,Si  0,O   3)    135.7896         0.015058   
    631. D(Si  1,O   4,Si  0,O   7)     12.3764         0.015058   
    632. D(Si  0,O   4,Si  1,Si  2)   -116.1785         0.015652   
    633. D(Si  0,O   4,Si  1,O   6)   -138.3731         0.015652   
    634. D(H  91,O   5,Si  2,Si  1)    -86.1177         0.015931   
    635. D(H  91,O   5,Si  2,O   6)    -63.8238         0.015931   
    636. D(Si  2,O   6,Si  1,Si  0)     89.7498         0.016868   
    637. D(Si  1,O   6,Si  2,O   9)     20.8101         0.014821   
    638. D(Si  2,O   6,Si  1,O   4)    107.6947         0.016868   
    639. D(Si  1,O   6,Si  2,O   5)    -98.5427         0.014821   
    640. D(H  92,O   7,Si  0,Si  1)   -144.5286         0.015185   
    641. D(H  92,O   7,Si  0,O   3)     90.2737         0.015185   
    642. D(H  93,O   8,Si  1,Si  0)      4.7426         0.016146   
    643. D(H  93,O   8,Si  1,Si  2)    128.1370         0.016146   
    644. D(H  94,O   9,Si  2,Si  1)    -10.0207         0.015694   
    645. D(H  94,O   9,Si  2,O   5)    103.4108         0.015694   
    646. D(O  13,Si 10,Si  0,O   3)     12.6790         0.010000   
    647. D(O  15,Si 10,Si  0,Si  1)     -9.0573         0.010000   
    648. D(O  13,Si 10,Si  0,Si  1)   -147.3505         0.010000   
    649. D(H  95,O  13,Si 10,Si  0)    113.2671         0.015073   
    650. D(H  95,O  13,Si 10,O  15)    -30.0162         0.015073   
    651. D(H  96,O  14,Si 11,O  17)     21.4758         0.013658   
    652. D(H  96,O  14,Si 11,O  19)    145.6557         0.013658   
    653. D(Si 12,O  15,Si 10,Si  0)     76.7253         0.014339   
    654. D(Si 10,O  15,Si 12,O  17)    135.3966         0.012705   
    655. D(Si 10,O  15,Si 12,O  20)     10.6727         0.012705   
    656. D(Si 12,O  15,Si 10,O  13)   -141.5361         0.014339   
    657. D(Si 10,O  16,Si  0,Si  1)    119.0255         0.017122   
    658. D(Si 10,O  16,Si  0,O   3)    -98.3837         0.017122   
    659. D(H 154,O  16,Si  0,Si  1)    -28.5742         0.017122   
    660. D(Si  0,O  16,Si 10,O  13)    113.7782         0.015218   
    661. D(Si  0,O  16,Si 10,O  15)   -125.6524         0.015218   
    662. D(H 154,O  16,Si 10,Si  0)    145.6972         0.015218   
    663. D(Si 12,O  17,Si 11,O  14)    101.2251         0.012730   
    664. D(Si 12,O  17,Si 11,O  19)    -21.1993         0.012730   
    665. D(Si 11,O  17,Si 12,O  15)   -103.6733         0.012866   
    666. D(Si 11,O  17,Si 12,O  20)     20.3978         0.012866   
    667. D(H  97,O  18,Si 10,Si  0)    169.6066         0.015180   
    668. D(H  97,O  18,Si 10,O  13)     52.2607         0.015180   
    669. D(H  98,O  19,Si 11,O  14)    -51.0322         0.013897   
    670. D(H  98,O  19,Si 11,O  17)     70.7622         0.013897   
    671. D(H  99,O  20,Si 12,O  15)     50.6346         0.013781   
    672. D(H  99,O  20,Si 12,O  17)    -73.0204         0.013781   
    673. D(O  25,Si 21,Si  2,Si  1)    101.9168         0.010000   
    674. D(O  25,Si 21,Si  2,O   5)    -61.4297         0.010000   
    675. D(O  28,Si 21,Si  2,Si  1)     10.0348         0.010000   
    676. D(O  26,Si 22,Si  1,Si  0)     82.6055         0.010000   
    677. D(Si 23,Si 22,Si  1,Si  0)   -178.3702         0.010000   
    678. D(Si 23,Si 22,Si  1,Si  2)     -5.6091         0.010000   
    679. D(O  27,Si 23,Si 22,O  26)    -62.6436         0.010000   
    680. D(O  30,Si 23,Si 22,Si  1)    -19.2827         0.010000   
    681. D(O  27,Si 23,Si 22,Si  1)    -87.6429         0.010000   
    682. D(Si  2,O  25,Si 21,O  28)     96.4345         0.013505   
    683. D(Si 21,O  25,Si  2,Si  1)    -93.6060         0.015494   
    684. D(Si 21,O  25,Si  2,O   5)    127.7572         0.015494   
    685. D(Si  2,O  25,Si 21,O  29)   -143.8058         0.013505   
    686. D(Si 22,O  26,Si  1,Si  2)     87.2663         0.015753   
    687. D(Si 22,O  26,Si  1,Si  0)   -107.7556         0.015753   
    688. D(Si  1,O  26,Si 22,O  27)   -114.2448         0.015201   
    689. D(Si  1,O  26,Si 22,Si 23)    -94.2452         0.015201   
    690. D(Si 23,O  27,Si 22,Si  1)    104.3868         0.014616   
    691. D(Si 23,O  27,Si 22,O  26)    126.3860         0.014616   
    692. D(Si 22,O  27,Si 23,O  30)   -121.3556         0.014311   
    693. D(Si 22,O  27,Si 23,O  33)     -1.3831         0.014311   
    694. D(Si 24,O  28,Si 21,Si  2)   -111.2014         0.013794   
    695. D(Si 24,O  28,Si 21,O  25)   -134.6462         0.013794   
    696. D(Si 21,O  28,Si 24,O  30)    140.6999         0.014442   
    697. D(Si 21,O  28,Si 24,O  34)     21.3423         0.014442   
    698. D(H 100,O  29,Si 21,Si  2)   -113.8181         0.014853   
    699. D(H 100,O  29,Si 21,O  25)    -97.8213         0.014853   
    700. D(Si 24,O  30,Si 23,Si 22)     89.7867         0.014310   
    701. D(Si 24,O  30,Si 23,O  27)    111.0361         0.014310   
    702. D(Si 23,O  30,Si 24,O  28)   -108.7128         0.013090   
    703. D(Si 23,O  30,Si 24,O  34)     12.8755         0.013090   
    704. D(H 101,O  31,Si 21,Si  2)     17.1432         0.014543   
    705. D(H 101,O  31,Si 21,O  25)     26.8805         0.014543   
    706. D(H 102,O  32,Si 22,Si  1)      7.5209         0.015572   
    707. D(H 102,O  32,Si 22,Si 23)    128.9224         0.015572   
[...]
B( 14-O , 17-O ) :   0.1975 B( 14-O , 96-H ) :   0.8329 B( 15-O , 17-O ) :   0.3209 
B( 15-O , 18-O ) :   0.1963 B( 15-O , 20-O ) :   0.2255 B( 15-O , 39-O ) :   0.1308 
B( 17-O , 19-O ) :   0.1795 B( 17-O , 20-O ) :   0.2246 B( 17-O , 39-O ) :   0.1463 
B( 17-O ,127-C ) :   0.1291 B( 18-O , 97-H ) :   0.8437 B( 19-O , 98-H ) :   0.8423 
B( 20-O , 99-H ) :   0.8460 B( 21-Si, 25-O ) :   1.0414 B( 21-Si, 28-O ) :   1.1582 
B( 21-Si, 29-O ) :   1.0113 B( 21-Si, 31-O ) :   1.0821 B( 22-Si, 26-O ) :   0.3960 
B( 22-Si, 27-O ) :   0.5970 B( 22-Si, 32-O ) :   0.8562 B( 22-Si, 35-Si) :  -0.1259 
B( 22-Si, 39-O ) :   0.1021 B( 22-Si, 43-O ) :   1.2224 B( 23-Si, 24-Si) :  -0.1062 
B( 23-Si, 27-O ) :   1.1243 B( 23-Si, 28-O ) :   0.1164 B( 23-Si, 30-O ) :   0.7011 
B( 23-Si, 33-O ) :   0.9573 B( 23-Si, 34-O ) :  -0.2455 B( 23-Si, 55-O ) :   0.8569 
B( 23-Si, 61-O ) :  -0.1438 B( 23-Si,145-O ) :   0.1210 B( 24-Si, 28-O ) :   0.8059 
B( 24-Si, 30-O ) :   1.1754 B( 24-Si, 34-O ) :   0.9606 B( 24-Si, 54-O ) :   0.8795 
B( 25-O , 31-O ) :   0.1050 B( 26-O , 27-O ) :   0.3387 B( 26-O , 32-O ) :   0.1416 
B( 26-O , 35-Si) :   0.1755 B( 26-O , 43-O ) :   0.2680 B( 27-O , 30-O ) :   0.2259 
B( 27-O , 32-O ) :   0.1155 B( 27-O , 33-O ) :   0.2244 B( 27-O , 43-O ) :   0.3212 
B( 27-O , 55-O ) :   0.2569 B( 28-O , 29-O ) :   0.1382 B( 28-O , 30-O ) :   0.1896 
B( 28-O , 31-O ) :   0.1525 B( 28-O , 34-O ) :   0.1621 B( 28-O , 54-O ) :   0.1697 
B( 29-O ,100-H ) :   0.8329 B( 30-O , 33-O ) :   0.1802 B( 30-O , 34-O ) :   0.2133 
B( 30-O , 54-O ) :   0.1620 B( 30-O , 55-O ) :   0.2290 B( 31-O ,101-H ) :   0.8268 
B( 32-O , 43-O ) :   0.2511 B( 32-O ,102-H ) :   0.8303 B( 33-O , 55-O ) :   0.1883 
B( 33-O ,103-H ) :   0.8063 B( 34-O , 54-O ) :   0.1455 B( 34-O ,104-H ) :   0.8294 
B( 35-Si, 39-O ) :   0.7777 B( 35-Si, 42-O ) :   0.8463 B( 35-Si, 43-O ) :   0.7897 
B( 35-Si, 44-O ) :   0.1282 B( 35-Si, 45-O ) :   0.8004 B( 36-Si, 40-O ) :   1.0259 
B( 36-Si, 41-O ) :   1.2448 B( 36-Si, 46-O ) :   1.0568 B( 36-Si, 49-O ) :   0.9276 
B( 37-Si, 41-O ) :   0.8337 B( 37-Si, 44-O ) :   1.3369 B( 37-Si, 47-O ) :   0.8281 
B( 37-Si, 69-O ) :   0.6807 B( 37-Si, 75-O ) :  -0.1272 B( 38-Si, 42-O ) :   1.2112 
B( 38-Si, 44-O ) :   0.6018 B( 38-Si, 48-O ) :   0.8405 B( 38-Si, 64-Si) :  -0.1638 
B( 38-Si, 68-O ) :   0.6213 B( 38-Si, 74-O ) :  -0.1744 B( 39-O , 42-O ) :   0.4119 
B( 39-O , 43-O ) :   0.3481 B( 39-O , 45-O ) :   0.1205 B( 39-O ,136-C ) :   0.1027 
B( 41-O , 44-O ) :   0.1501 B( 41-O , 46-O ) :   0.1419 B( 41-O , 47-O ) :   0.1766 
B( 41-O , 49-O ) :   0.1925 B( 41-O , 69-O ) :   0.2581 B( 41-O ,129-C ) :   0.1183 
B( 42-O , 43-O ) :   0.4565 B( 42-O , 44-O ) :   0.2767 B( 42-O , 45-O ) :   0.1970 
B( 42-O , 48-O ) :   0.2435 B( 42-O , 68-O ) :   0.2044 B( 42-O ,134-C ) :  -0.1032 
B( 43-O , 45-O ) :   0.1981 B( 43-O ,136-C ) :  -0.1038 B( 44-O , 47-O ) :   0.2895 
B( 44-O , 48-O ) :   0.3292 B( 44-O , 68-O ) :   0.3223 B( 44-O , 69-O ) :   0.1807 
B( 44-O ,129-C ) :   0.3113 B( 44-O ,130-C ) :  -0.1699 B( 44-O ,131-C ) :  -0.1035 
B( 45-O ,105-H ) :   0.8119 B( 46-O ,106-H ) :   0.8250 B( 47-O , 69-O ) :   0.1335 
B( 47-O ,107-H ) :   0.8279 B( 48-O , 68-O ) :   0.1445 B( 48-O ,108-H ) :   0.8068 
B( 49-O ,109-H ) :   0.8355 B( 50-Si, 54-O ) :   1.1221 B( 50-Si, 57-O ) :   1.0629 
B( 50-Si, 58-O ) :   1.0973 B( 50-Si, 60-O ) :   1.0478 B( 51-Si, 55-O ) :   0.9480 
B( 51-Si, 56-O ) :   0.7816 B( 51-Si, 61-O ) :   1.0158 B( 51-Si, 64-Si) :  -0.2456 
B( 51-Si, 72-O ) :   0.8720 B( 52-Si, 56-O ) :   1.1558 B( 52-Si, 59-O ) :   0.8989 
B( 52-Si, 62-O ) :   1.0568 B( 52-Si, 81-O ) :   0.8467 B( 53-Si, 57-O ) :   1.0655 
B( 53-Si, 59-O ) :   1.0985 B( 53-Si, 63-O ) :   1.0505 B( 53-Si, 80-O ) :   1.0393 
B( 54-O , 57-O ) :   0.1149 B( 54-O , 60-O ) :   0.1189 B( 55-O , 56-O ) :   0.2387 
B( 55-O , 61-O ) :   0.1964 B( 55-O , 72-O ) :   0.2642 B( 56-O , 59-O ) :   0.1527 
B( 56-O , 61-O ) :   0.1620 B( 56-O , 62-O ) :   0.1704 B( 56-O , 72-O ) :   0.2334 
B( 56-O , 81-O ) :   0.1820 B( 57-O , 60-O ) :   0.1031 B( 57-O , 63-O ) :   0.1259 
B( 58-O ,110-H ) :   0.8321 B( 59-O , 62-O ) :   0.1259 B( 59-O , 63-O ) :   0.1154 
B( 59-O , 81-O ) :   0.1837 B( 60-O ,111-H ) :   0.8227 B( 61-O , 72-O ) :   0.1693 
B( 61-O ,112-H ) :   0.8239 B( 62-O , 81-O ) :   0.1134 B( 62-O ,113-H ) :   0.8189 
B( 63-O ,114-H ) :   0.8273 B( 64-Si, 67-Si) :  -0.1237 B( 64-Si, 68-O ) :   1.0162 
B( 64-Si, 71-O ) :   0.6647 B( 64-Si, 72-O ) :   0.8580 B( 64-Si, 74-O ) :   0.9022 
B( 65-Si, 69-O ) :   1.1982 B( 65-Si, 70-O ) :   1.0155 B( 65-Si, 75-O ) :   1.0175 
B( 65-Si, 78-O ) :   1.0653 B( 66-Si, 70-O ) :   1.0919 B( 66-Si, 73-O ) :   1.0958 
B( 66-Si, 76-O ) :   1.0547 B( 66-Si, 86-O ) :   1.0502 B( 67-Si, 71-O ) :   1.1521 
B( 67-Si, 73-O ) :   0.8949 B( 67-Si, 77-O ) :   0.9860 B( 67-Si, 85-O ) :   0.8796 
B( 68-O , 71-O ) :   0.1793 B( 68-O , 72-O ) :   0.1879 B( 68-O , 74-O ) :   0.2142 
B( 68-O ,131-C ) :   0.1338 B( 69-O , 70-O ) :   0.1008 B( 69-O , 75-O ) :   0.1757 
B( 69-O , 78-O ) :   0.1031 B( 70-O , 75-O ) :   0.1022 B( 70-O , 76-O ) :   0.1290 
B( 71-O , 72-O ) :   0.2111 B( 71-O , 73-O ) :   0.1589 B( 71-O , 74-O ) :   0.1470 
B( 71-O , 77-O ) :   0.1772 B( 71-O , 85-O ) :   0.1508 B( 72-O , 74-O ) :   0.1892 
B( 73-O , 76-O ) :   0.1166 B( 73-O , 77-O ) :   0.1477 B( 73-O , 85-O ) :   0.1870 
B( 74-O ,115-H ) :   0.8188 B( 75-O ,116-H ) :   0.8198 B( 76-O ,117-H ) :   0.8250 
B( 77-O , 85-O ) :   0.1717 B( 77-O ,118-H ) :   0.8226 B( 78-O ,119-H ) :   0.8335 
B( 79-Si, 81-O ) :   1.1655 B( 79-Si, 82-O ) :   1.0102 B( 79-Si, 83-O ) :   1.0528 
B( 79-Si, 88-O ) :   1.0344 B( 80-O ,120-H ) :   0.8358 B( 81-O , 82-O ) :   0.1298 
B( 81-O , 83-O ) :   0.1752 B( 82-O ,121-H ) :   0.8339 B( 83-O , 88-O ) :   0.1125 
B( 83-O ,122-H ) :   0.8293 B( 84-Si, 85-O ) :   1.1635 B( 84-Si, 87-O ) :   1.0873 
B( 84-Si, 88-O ) :   1.0466 B( 84-Si, 89-O ) :   1.0373 B( 85-O , 88-O ) :   0.1071 
B( 85-O , 89-O ) :   0.1121 B( 86-O ,123-H ) :   0.8352 B( 87-O ,124-H ) :   0.8332 
B( 88-O , 89-O ) :   0.1011 B( 89-O ,125-H ) :   0.8248 B(126-N ,127-C ) :   1.1121 
B(126-N ,131-C ) :   1.0026 B(126-N ,134-C ) :   0.9874 B(126-N ,135-C ) :   0.1926 
B(126-N ,136-C ) :   0.1016 B(127-C ,128-N ) :   1.0250 B(127-C ,130-C ) :  -0.1950 
B(127-C ,132-O ) :   1.6932 B(128-N ,129-C ) :   1.0239 B(128-N ,146-H ) :   0.9568 
B(129-C ,130-C ) :   1.2850 B(129-C ,133-O ) :   1.6805 B(129-C ,134-C ) :  -0.1360 
B(130-C ,131-C ) :   1.9429 B(130-C ,134-C ) :  -0.1557 B(130-C ,147-H ) :   0.9778 
B(131-C ,134-C ) :  -0.1692 B(131-C ,139-O ) :   0.1429 B(131-C ,143-O ) :  -0.1216 
B(131-C ,148-H ) :   1.0347 B(132-O ,134-C ) :   0.1407 B(134-C ,135-C ) :   0.4461 
B(134-C ,136-C ) :  -0.2621 B(134-C ,137-C ) :   0.2306 B(134-C ,139-O ) :   0.6568 
B(134-C ,149-H ) :   1.0019 B(134-C ,150-H ) :   0.1209 B(134-C ,151-H ) :  -0.1467 
B(135-C ,136-C ) :   1.5366 B(135-C ,137-C ) :  -0.2082 B(135-C ,138-O ) :   0.1067 
B(135-C ,140-C ) :  -0.1498 B(135-C ,149-H ) :  -0.1219 B(135-C ,150-H ) :   0.8487 
B(135-C ,151-H ) :   1.0125 B(135-C ,153-H ) :  -0.1026 B(136-C ,137-C ) :   0.6974 
B(136-C ,138-O ) :   1.0494 B(136-C ,139-O ) :   0.1016 B(136-C ,141-O ) :  -0.1629 
B(136-C ,152-H ) :   1.0520 B(137-C ,138-O ) :  -0.2950 B(137-C ,139-O ) :   0.8939 
B(137-C ,140-C ) :   0.8894 B(137-C ,141-O ) :  -0.1762 B(137-C ,153-H ) :   1.0803 
B(138-O ,140-C ) :   0.1333 B(138-O ,154-H ) :   0.8779 B(140-C ,141-O ) :   1.2797 
B(140-C ,145-O ) :   0.2438 B(140-C ,155-H ) :   1.0107 B(140-C ,156-H ) :   0.9841 
B(141-O ,142-P ) :   0.9333 B(142-P ,143-O ) :   1.5408 B(142-P ,144-O ) :   1.4693 
B(142-P ,145-O ) :   0.9901 B(145-O ,157-H ) :   0.8611 

-------
TIMINGS
-------

Total SCF time: 0 days 3 hours 58 min 53 sec 

Total time                  ....   14333.770 sec
Sum of individual times     ....   14262.454 sec  ( 99.5%)

SCF preparation             ....      20.483 sec  (  0.1%)
Fock matrix formation       ....   14051.677 sec  ( 98.0%)
  Split-RI-J                ....    1376.749 sec  (  9.8% of F)
  Chain of spheres X        ....   11120.555 sec  ( 79.1% of F)
  XC integration            ....     382.139 sec  (  2.7% of F)
    Basis function eval.    ....      20.097 sec  (  5.3% of XC)
    Density eval.           ....     102.833 sec  ( 26.9% of XC)
    XC-Functional eval.     ....       0.329 sec  (  0.1% of XC)
    XC-Potential eval.      ....     107.341 sec  ( 28.1% of XC)
  CPCM terms                ....    1168.278 sec  (  8.3% of F)
Diagonalization             ....       0.000 sec  (  0.0%)
Density matrix formation    ....      11.211 sec  (  0.1%)
Total Energy calculation    ....       0.418 sec  (  0.0%)
Population analysis         ....      11.836 sec  (  0.1%)
Orbital Transformation      ....     166.273 sec  (  1.2%)
Orbital Orthonormalization  ....       0.000 sec  (  0.0%)
NR solution                 ....       0.556 sec  (  0.0%)
TRAH solution               ....       0.556 sec  (  0.0%)
Finished LeanSCF after 14338.0 sec

Maximum memory used throughout the entire LEANSCF-calculation: 2106.1 MB


-------------------------------------------------------------------------------
                          DFT DISPERSION CORRECTION                            
                                                                               
                              DFTD3 V3.1  Rev 1                                
                          USING Becke-Johnson damping                          
-------------------------------------------------------------------------------
The PBE0 functional is recognized
Active option DFTDOPT                   ...         4   

molecular C6(AA) [au] = 445082.432518 


            DFT-D V3
 parameters
 s6 scaling factor         :     1.0000 
 a1 scaling factor         :     0.4145 
 s8 scaling factor         :     1.2177 
 a2 scaling factor         :     4.8593 
 ad hoc parameters k1-k3   :    16.0000     1.3333    -4.0000 

 Edisp/kcal,au: -168.606575239595  -0.268691652036 
 E6   /kcal   : -100.731969358 
 E8   /kcal   : -67.874605882 
 % E8         :  40.256203404 

-------------------------   ----------------
Dispersion correction           -0.268691652
-------------------------   ----------------


-------------------------   --------------------
FINAL SINGLE POINT ENERGY    -13336.951369799568
-------------------------   --------------------

                                *** OPTIMIZATION RUN DONE ***



           ************************************************************
           *        Program running with 8 parallel MPI-processes     *
           *              working on a common directory               *
           ************************************************************

------------------------------------------------------------------------------
                              ORCA PROPERTY CALCULATIONS
------------------------------------------------------------------------------

GBWName                                 ... frame_8_ma.gbw
Number of atoms                         ...    158
Number of basis functions               ...   4288
Max core memory                         ...   2500 MB

Electric properties:
Dipole moment                           ... YES
Quadrupole moment                       ...  NO
Static polarizability (Dipole/Dipole)   ...  NO
Static polarizability (Dipole/Quad.)    ...  NO
Static polarizability (Quad./Quad.)     ...  NO
Static polarizability (Velocity)        ...  NO
Static hyperpolarizability              ...  NO

Atomic electric properties:
Dipole moment                           ...  NO
Quadrupole moment                       ...  NO
Static polarizability                   ...  NO

Choice of electric origin               ... Center of mass
Position of electric origin             ...    16.199473    35.273229    15.822423

General magnetic properties:
Magnetizability                         ...  NO

EPR properties:
g-Tensor (aka g-matrix)                 ...  NO
Zero-Field splitting spin-orbit         ...  NO
Zero-field splitting spin-spin          ...  NO
Hyperfine couplings                     ...  NO (   0 nuclei)
Quadrupole couplings                    ...  NO (   0 nuclei)
Contact density                         ...  NO (   0 nuclei)

NMR properties:
Chemical shifts                         ...  NO (   0 nuclei)
Spin-rotation constants                 ...  NO (   0 nuclei)
Spin-spin couplings                     ...  NO (   0 nuclei,    0 pairs)

Choice of magnetic origin               ... GIAO
Position of magnetic origin             ...     0.000000     0.000000     0.000000

Properties with geometric perturbations:
SCF Hessian                             ...  NO
IR spectrum                             ...  NO
VCD spectrum                            ...  NO
X-ray spectroscopy properties:
SCF XES/XAS/RIXS spectra                ...  NO

SCF SOC stabilization energy            ...  NO
Diagonal Born-Oppenheimer correction    ...  NO

-------------
DIPOLE MOMENT
-------------

Method             : SCF
Type of density    : Electron Density
Multiplicity       :   1
Irrep              :   0
Energy             : -13336.6826781475319876 Eh
Basis              : AO
                                X                 Y                 Z
Electronic contribution:     17.515094207      -4.946071267       5.665851679
Nuclear contribution   :    -32.639830922       8.003306919     -16.476364072
                        -----------------------------------------
Total Dipole Moment    :    -15.124736714       3.057235653     -10.810512393
                        -----------------------------------------
Magnitude (a.u.)       :     18.840688117
Magnitude (Debye)      :     47.889223374



--------------------
Rotational spectrum 
--------------------
 
Rotational constants in cm-1:             0.000337             0.000318             0.000187 
Rotational constants in MHz :            10.106413             9.537471             5.608871 

Dipole components along the rotational axes: 
x,y,z [a.u.] :    11.814497    -8.726831   -11.799644 
x,y,z [Debye]:    30.030066   -22.181843   -29.992311 

 

Dipole moment calculation done in   0.8 sec 

Maximum memory used throughout the entire PROP-calculation: 1282.2 MB

--------------------------------
SUGGESTED CITATIONS FOR THIS RUN
--------------------------------

Below you find a list of papers that are relevant to this ORCA run
We neither can nor want to force you to cite these papers, but we appreciate if you do
You receive ORCA, which is the product of decades of hard work by many enthusiastic individuals, for free
The only thing we kindly ask in return is that you cite our papers,
We deeply appreciate it, if you show your appreciation for ORCA by not just citing the generic ORCA reference.

Please note that relegating all ORCA citations to the supporting information does *not* help us.
SI sections are not indexed - citations you put there will not count into any citation statistics
But we need these citations in order to attract the funding resources that allow us to do what we are doing

Therefore, if you are a happy ORCA user, please consider citing a few of the papers listed below in the main body of your paper

In addition to the list printed below, the program has created the file frame_8_ma.bibtex that contains the list in bibtex format
You can import this file easily into all common literature databanks and citation aid programs


List of essential papers. We consider these as the minimum necessary citations

  1. Neese, F.
     Software update: the ORCA program system, version 6.0
     WIRES Comput. Molec. Sci. 2025 15(1), e70019
     doi.org/10.1002/wcms.7019

List of papers to cite with high priority. The work reported in these papers was absolutely
necessary for this run to complete.
Our perspective: the developers of density functionals and basis sets usually get cited in chemistry papers
Good! But without the algorithms to do something with them, the functionals or basis sets would not do anything.
Hence, in our opinion, the algorithm design and method developments papers are equally worthy of getting cited

  1. Neese, F.
     An improvement of the resolution of the identity approximation for the formation of the Coulomb matrix
     J. Comp. Chem. 2003 24(14), 1740-1747
     doi.org/10.1002/jcc.10318
  2. Neese, F.; Wennmohs, F.; Hansen, A.; Becker, U.
     Efficient, approximate and parallel Hartree-Fock and hybrid DFT calculations. A 'chain-of-spheres' algorithm for the Hartree-Fock exchange
     Chem. Phys. 2009 356(1-3), 98-109
     doi.org/10.1016/j.chemphys.2008.10.036
  3. Grimme, S.; Antony, J.; Ehrlich, S.; Krieg, H.
     A consistent and accurate ab initio parametrization of density functional dispersion correction (DFT-D) for the 94 elements H-Pu
     J. Chem. Phys. 2010 132 , 154104
     doi.org/10.1063/1.3382344
  4. Grimme, S.; Ehrlich, S.; Goerigk, L.
     Effect of the damping function in dispersion corrected density functional theory
     J. Comput. Chem. 2011 32(7), 1456-1465
     doi.org/10.1002/jcc.21759
  5. Garcia-Rates, M.; Neese, F.
     Effect of the Solute Cavity on the Solvation Energy and its Derivatives within the Framework of the Gaussian Charge Scheme
     J. Comput. Chem. 2020 41 , 922-939
     doi.org/10.1002/jcc.26139
  6. Helmich-Paris, B.; de Souza, B.; Neese, F.; Izsák, R.
     An improved chain of spheres for exchange algorithm
     J. Chem. Phys. 2021 155(10), 104109
     doi.org/10.1063/5.0058766
  7. Helmich-Paris, B.
     A trust-region augmented Hessian implementation for restricted and unrestricted Hartree–Fock and Kohn–Sham methods
     J. Chem. Phys. 2021 154 , 164104
     doi.org/10.1063/5.0040798
  8. Neese, F.
     The SHARK Integral Generation and Digestion System
     J. Comp. Chem. 2022 44(3), 381
     doi.org/10.1002/jcc.26942

List of suggested additional citations. These are papers that are important in the 'surrounding' of 
of this run, or papers that preceded the highly important papers. If you like your results we are grateful for a citation.

  1. Izsak, R.; Neese, F.
     An overlap fitted chain of spheres exchange method
     J. Chem. Phys. 2011 135 , 144105
     doi.org/10.1063/1.3646921
  2. Izsak, R.; Hansen, A.; Neese, F.
     The resolution of identity and chain of spheres approximations for the LPNO-CCSD singles Fock term
     Molec. Phys. 2012 110 , 2413-2417
     doi.org/10.1080/00268976.2012.687466
  3. Neese, F.
     The ORCA program system
     WIRES Comput. Molec. Sci. 2012 2(1), 73-78
     doi.org/10.1002/wcms.81
  4. Izsak, R.; Neese, F.; Klopper, W.
     Robust fitting techniques in the chain of spheres approximation to the Fock exchange: The role of the complementary space
     J. Chem. Phys. 2013 139 , 
     doi.org/10.1063/1.4819264
  5. Neese, F.
     Software update: the ORCA program system, version 4.0
     WIRES Comput. Molec. Sci. 2018 8(1), 1-6
     doi.org/10.1002/wcms.1327
  6. Neese, F.; Wennmohs, F.; Becker, U.; Riplinger, C.
     The ORCA quantum chemistry program package
     J. Chem. Phys. 2020 152(22), 224108
     doi.org/10.1063/5.0004608
  7. Neese, F.
     Software update: The ORCA program system—Version 5.0
     WIRES Comput. Molec. Sci. 2022 12(1), e1606
     doi.org/10.1002/wcms.1606

Timings for individual modules:

Sum of individual times          ...   394417.741 sec (=6573.629 min)
Startup calculation              ...     1788.964 sec (=  29.816 min)   0.5 %
SCF iterations                   ...   330836.241 sec (=5513.937 min)  83.9 %
Property calculations            ...        5.634 sec (=   0.094 min)   0.0 %
SCF Gradient evaluation          ...    61770.024 sec (=1029.500 min)  15.7 %
Geometry relaxation              ...       16.878 sec (=   0.281 min)   0.0 %
                             ****ORCA TERMINATED NORMALLY****
TOTAL RUN TIME: 4 days 13 hours 34 minutes 3 seconds 0 msec
