160
Step=1
Si  0.82550200  16.90273300  8.02672800
Si  3.57859300  15.40405300  7.91524200
Si  3.61525400  12.32827200  7.79142800
O  -0.39399300  16.38822500  8.97049800
O   2.14700000  16.01900000  8.38100000
O   2.16833100  11.70013100  8.17359000
O   3.71000000  13.84500000  8.38400000
O   0.51413300  16.82449500  6.43064600
O   3.78242900  15.56381400  6.30078700
O   3.83835800  12.26151700  6.17639000
Si  0.79040500  20.03770000  8.11798400
Si  3.61646500  24.59144300  7.78977800
Si  3.57392400  21.51644700  7.91298200
O  -0.36656700  20.60916400  9.10618700
O   2.16894300  25.21986200  8.16918500
O   2.14700000  20.90100100  8.38100000
O   1.04500000  18.46000000  8.38400000
O   3.71000000  23.07500000  8.38400000
O   0.28796900  20.17942500  6.58029600
O   3.84322900  24.65740300  6.17523000
O   3.76807200  21.35886600  6.29712000
Si  6.22270400  10.74478900  7.89204900
Si  6.22770200  16.89731300  8.01236700
Si  8.87567200  15.40393500  8.07146700
Si  8.88270000  12.35331700  7.92738900
O   4.81100000  11.40400000  8.38100000
O   4.84026700  16.22821200  8.54553500
O   7.53252300  16.13444900  8.63606400
O   7.47600000  11.67100000  8.38100000
O   6.39553700  9.26420200  8.53484800
O   8.97115800  13.85656800  8.57903200
O   6.19358000  10.56500300  6.27778400
O   6.34068200  16.74021400  6.38952300
O   8.84554300  15.39082800  6.42808100
O   8.99617600  12.49448500  6.29922600
Si  6.21638900  20.01550500  8.00088200
Si  6.22275700  26.17797500  7.89639700
Si  8.88164500  24.57359600  7.91870100
Si  8.85075300  21.52826000  8.03684200
O   4.83212200  20.68555600  8.53863800
O   4.81100000  25.51600000  8.38100000
O   7.47600000  25.24900000  8.38100000
O   7.51705000  20.79206800  8.61378700
O   6.27927000  18.45840700  8.45642100
O   8.96178700  23.06765900  8.56086500
O   6.31668600  20.15996000  6.37582700
O   6.19404500  26.36676300  6.28308200
O   8.99771800  24.44641200  6.28994600
O   8.79833300  21.55854500  6.39502400
O   6.39500700  27.65560300  8.54611700
Si  11.54077800  10.90435200  7.70392400
Si  11.54475400  16.89739000  7.91695200
Si  14.20353600  15.39713100  7.87470900
Si  14.23582000  12.29374200  7.89821800
O   10.14000000  11.40400000  8.38100000
O   10.19474400  16.23030400  8.55061100
O   12.85059900  16.10098600  8.48098100
O   12.80500000  11.67100000  8.38100000
O   11.70002200  9.30021600  7.89283400
O   14.36800000  13.84500000  8.38400000
O   11.52647400  11.21103000  6.10107400
O   11.53153700  16.72019100  6.29171000
O   14.13836300  15.44005700  6.24791000
O   14.36592100  12.11520300  6.28747400
Si  11.52107500  20.04305300  7.85872200
Si  11.54104400  26.02008600  7.70790700
Si  14.23699000  24.62924600  7.90141000
Si  14.21263200  21.53527600  7.85646400
O   10.17156500  20.69916000  8.49678400
O   10.14000000  25.51600000  8.38100000
O   12.80500000  25.24900000  8.38100000
O   12.80500000  20.90100000  8.38100000
O   11.64364400  18.47899300  8.30700800
O   14.36800000  23.07500000  8.38400000
O   11.49649700  20.16818400  6.23103200
O   11.52980000  25.72254300  6.10357100
O   14.36785300  24.80206500  6.29032800
O   14.23459200  21.46715800  6.21933400
O   11.70097800  27.62284100  7.90688300
Si  16.94924900  16.87134200  8.04468200
O   15.47125000  11.46932700  8.55584000
O   15.46900000  16.28600000  8.38100000
O   18.07446200  16.21289800  9.01232900
O   17.32777000  16.54921100  6.49331000
Si  16.79747600  19.93081100  7.73267200
O   15.46900000  20.63400000  8.38100000
O   15.47112700  25.45237000  8.56102300
O   18.11634100  20.83520200  8.03021800
O   17.03200000  18.46000000  8.38400000
O   16.60876900  19.83038400  6.12139200
H  -0.50423300  15.43969800  9.08178100
H   1.69998200  12.07828000  8.92297300
H   0.31527800  15.96291600  6.05244500
H   3.06011700  15.36094400  5.69970900
H   3.18226100  12.64156700  5.58570400
H  -0.12746500  20.79216800  10.01912000
H   1.69595600  24.83705400  8.91328400
H   0.06870200  21.06154600  6.26602500
H   3.18504400  24.28262500  5.58349200
H   3.04237600  21.56618400  5.70151800
H   6.86261700  9.19605300  9.37200300
H   5.50488200  11.07966300  5.83436100
H   5.53947200  16.40054300  5.95952200
H   8.05967300  15.81862300  6.04527900
H   8.86604800  13.39292800  5.95934400
H   5.51369500  20.50210000  5.95097600
H   5.50812300  25.85154700  5.83617100
H   8.84698100  23.55488100  5.94014900
H   8.01534700  21.12144600  6.01740500
H   6.85640200  27.71938900  9.38677000
H   12.07465600  8.98126900  8.71867800
H   10.73932800  11.69412400  5.80207300
H   10.72188000  16.34829400  5.91526700
H   13.31446500  15.80088700  5.88887800
H   13.52713000  11.98281400  5.82547800
H   10.69115600  20.54020200  5.84772900
H   10.74283600  25.24201400  5.79986200
H   13.53075200  24.94716800  5.82892500
H   13.39832300  21.21040200  5.80701700
H   12.07260100  27.93684500  8.73599200
H   15.82850300  11.79809400  9.38506500
H   18.14928400  15.25438700  9.00788300
H   16.62567000  16.64916100  5.84290700
H   15.82415900  25.12896100  9.39417300
H   18.51458400  20.76863300  8.90270000
H   15.82968300  20.30123600  5.78901700
P   4.92845000  12.35855000  11.19102800
O   2.85638300  14.03399600  14.04329200
O   0.55534600  11.77053500  13.40499200
O   0.11485400  13.82478900  11.76117200
O   4.91946700  12.93269900  12.69633600
O   0.43675600  16.67095600  12.21677800
O   5.54220200  10.97488700  11.19433100
O   5.85985500  13.31333000  10.30619300
O   3.49817400  12.34600100  10.71234700
N   2.50572800  15.79154400  12.39997900
N   2.10345600  17.84609600  11.24407200
N   3.85764500  18.83847600  10.10621200
C   1.73514400  12.26534900  12.81016400
C   1.47275200  13.60603800  12.09806300
C   2.81486200  12.60483900  13.88443100
C   1.94580500  14.65609000  13.12261000
C   4.23474500  12.08852900  13.57844000
C   3.79864000  15.74398300  11.98032300
C   1.63346500  16.79049800  11.95849100
C   4.24996300  16.75406000  11.21931700
C   3.37245800  17.81597700  10.88499000
H   2.10205100  11.50957500  12.09904500
H   2.06900100  13.68484800  11.17454700
H   2.45617100  12.20355000  14.84461800
H   1.09728400  15.01335200  13.72146100
H   4.23057400  11.06221800  13.17382700
H   4.83976800  12.08455100  14.50061300
H  -0.21518000  12.09126700  12.88594500
H  -0.01856400  14.80034000  11.80094600
H   4.39357900  14.88055100  12.23268400
H   5.24563800  16.73876000  10.81005500
H   4.73287500  18.74374000  9.58787800
H   3.24829700  19.51153100  9.64403600
H   6.40696900  12.78303300  9.69175100
160
Step=2
Si  0.81952600  16.89790500  8.04693800
Si  3.57588600  15.39922300  7.90779000
Si  3.60451100  12.32611400  7.81455200
O  -0.36983700  16.39147500  9.03418100
O   2.14700000  16.01900000  8.38100000
O   2.16306300  11.70208400  8.22254500
O   3.71000000  13.84500000  8.38400000
O   0.46889800  16.79847700  6.45972900
O   3.77671600  15.56175800  6.29198600
O   3.79652600  12.24713800  6.19457600
Si  0.78942400  20.03601400  8.11678400
Si  3.61573600  24.59206200  7.79082700
Si  3.57410700  21.51860300  7.91109300
O  -0.36251200  20.61120700  9.10845900
O   2.16824600  25.21959300  8.17216000
O   2.14700000  20.90100000  8.38100000
O   1.04500000  18.46000000  8.38400000
O   3.71000000  23.07500000  8.38400000
O   0.28675600  20.18176000  6.57960900
O   3.84070600  24.65904200  6.17605000
O   3.77045300  21.35839900  6.29646500
Si  6.21812700  10.75181600  7.87497700
Si  6.22547400  16.89262100  8.01404400
Si  8.87519000  15.40317900  8.08181700
Si  8.88396500  12.35538400  7.92961100
O   4.81100000  11.40400000  8.38100000
O   4.83722800  16.22467000  8.53970800
O   7.52927900  16.13225000  8.64229200
O   7.47600000  11.67100000  8.38100000
O   6.39612400  9.26005500  8.48892000
O   8.97145200  13.85496900  8.58858900
O   6.19032500  10.60530000  6.25703000
O   6.34107700  16.73975800  6.39169800
O   8.84751400  15.39121900  6.43866200
O   8.99578100  12.49959200  6.30196100
Si  6.21495200  20.01498500  8.00621300
Si  6.22278900  26.17750500  7.89568800
Si  8.88163800  24.57224100  7.92061500
Si  8.85051300  21.52593300  8.04460900
O   4.83040600  20.68806800  8.54081700
O   4.81100000  25.51600000  8.38100000
O   7.47600000  25.24900000  8.38100000
O   7.51455200  20.79101200  8.61995300
O   6.27436500  18.45559100  8.46511700
O   8.96095000  23.06676000  8.56552800
O   6.31696300  20.15412500  6.38166800
O   6.19381500  26.36524500  6.28210400
O   8.99821400  24.44180200  6.29209100
O   8.79958900  21.55374500  6.40277000
O   6.39511700  27.65573000  8.54435400
Si  11.54071100  10.90552400  7.70277900
Si  11.54355700  16.89600000  7.92836300
Si  14.20254400  15.39747800  7.87673100
Si  14.23570200  12.29402900  7.89793700
O   10.14000000  11.40400000  8.38100000
O   10.19358000  16.22906300  8.56237400
O   12.85074800  16.09921000  8.48786300
O   12.80500000  11.67100000  8.38100000
O   11.69963500  9.30097100  7.88918100
O   14.36800000  13.84500000  8.38400000
O   11.52565400  11.21481500  6.10041800
O   11.52951600  16.72316100  6.30255500
O   14.13425700  15.44198900  6.24994300
O   14.36586100  12.11625100  6.28696600
Si  11.52059100  20.03923100  7.87336900
Si  11.54078800  26.01921500  7.70713000
Si  14.23619500  24.62826600  7.89995700
Si  14.21044300  21.53323300  7.86101800
O   10.17016800  20.69680000  8.50883400
O   10.14000000  25.51600000  8.38100000
O   12.80500000  25.24900000  8.38100000
O   12.80556100  20.89716000  8.39352200
O   11.64349900  18.47601400  8.32174100
O   14.36800000  23.07500000  8.38400000
O   11.49585400  20.16033600  6.24533700
O   11.52883200  25.72054700  6.10293400
O   14.36587800  24.79890900  6.28839100
O   14.22819800  21.46394500  6.22375600
O   11.70077000  27.62229000  7.90472700
Si  16.94871400  16.87154500  8.04413800
O   15.47135600  11.46931400  8.55512500
O   15.46900000  16.28600000  8.38100000
O   18.07375300  16.21185100  9.01138700
O   17.32727800  16.54976600  6.49249500
Si  16.79606200  19.93007800  7.73118300
O   15.46900000  20.63400000  8.38100000
O   15.47142300  25.45198600  8.55719500
O   18.11556300  20.83501200  8.02499600
O   17.03200000  18.46000000  8.38400000
O   16.60370300  19.82823200  6.12028300
H  -0.46756000  15.44467900  9.17803900
H   1.72432700  12.09173000  8.98643500
H   0.26256500  15.93163700  6.09772600
H   3.05302700  15.36039000  5.69226700
H   3.12910000  12.62326800  5.61441800
H  -0.11985500  20.79482500  10.02067000
H   1.69576100  24.83603200  8.91647300
H   0.06885400  21.06494700  6.26637400
H   3.18192900  24.28466800  5.58436600
H   3.04559300  21.56408200  5.69868100
H   6.86233200  9.18127600  9.32549500
H   5.50201500  11.13073700  5.82518600
H   5.53813600  16.40036800  5.96163100
H   8.06160800  15.81807100  6.05456600
H   8.86424600  13.39748700  5.96225100
H   5.51453300  20.49548100  5.95394100
H   5.50777100  25.84984200  5.83528400
H   8.84726600  23.54953300  5.94386400
H   8.01660100  21.11670900  6.02471400
H   6.85671300  27.72049000  9.38500900
H   12.07460300  8.98026100  8.71438500
H   10.73848900  11.69874100  5.80226800
H   10.72022600  16.35258000  5.92452500
H   13.30975100  15.80281800  5.89229000
H   13.52725600  11.98396000  5.82439300
H   10.69092200  20.53139100  5.86046400
H   10.74173600  25.23968900  5.79965600
H   13.52876700  24.94376200  5.82684900
H   13.39175900  21.20680800  5.81266400
H   12.07296100  27.93737000  8.73334500
H   15.82910300  11.79760300  9.38451600
H   18.14748300  15.25303500  9.00662900
H   16.62537100  16.64974900  5.84167400
H   15.82574100  25.12963300  9.39039700
H   18.51581200  20.76970600  8.89682400
H   15.82366200  20.29902300  5.78921700
P   4.91234700  12.20888800  11.18169500
O   2.79229400  14.14650800  14.04425800
O   0.38617600  11.98286000  13.71726700
O  -0.09972700  13.95280800  11.97751000
O   4.82171300  12.87050700  12.65602700
O   0.39047100  16.78379200  12.26770900
O   5.60105600  10.86690200  11.26475200
O   5.83810500  13.22254300  10.35636400
O   3.52519500  12.15144200  10.61385000
N   2.44589000  15.86732300  12.43373600
N   2.09105600  17.90616200  11.26834500
N   3.84810600  18.84925300  10.12313600
C   1.53010500  12.38548400  12.99029400
C   1.27271100  13.69794400  12.23439900
C   2.69821900  12.71494200  13.95378000
C   1.85571100  14.76421400  13.17620100
C   4.08970200  12.12764600  13.61927300
C   3.73340000  15.78994600  12.00511800
C   1.59260300  16.87810800  11.99668700
C   4.21961700  16.77908300  11.23419300
C   3.35820100  17.85133700  10.89548700
H   1.80683800  11.58738300  12.29837300
H   1.81305600  13.69179800  11.28320200
H   2.39149900  12.36562400  14.94701100
H   1.06437900  15.18054600  13.80618800
H   4.02916200  11.07979800  13.30156200
H   4.70787800  12.15259100  14.52526500
H  -0.39627000  12.32324800  13.25447900
H  -0.20389500  14.92664900  11.96625400
H   4.30471700  14.91840000  12.28316700
H   5.21756200  16.74249600  10.82403000
H   4.71881500  18.75049900  9.60570400
H   3.24146100  19.51584800  9.66556600
H   6.41835700  12.73339400  9.74906700
160
Step=3
Si  0.81474700  16.89343500  8.06712900
Si  3.57474900  15.39342000  7.90049800
Si  3.59163700  12.32321200  7.84252700
O  -0.34795000  16.39566600  9.09140100
O   2.14700000  16.01900000  8.38100000
O   2.15064000  11.70465900  8.26214300
O   3.71000000  13.84500000  8.38400000
O   0.42941300  16.77584600  6.48878500
O   3.76949300  15.55773000  6.28278000
O   3.75705700  12.23746800  6.21732000
Si  0.78777600  20.03354300  8.11549100
Si  3.61456800  24.59318700  7.79256600
Si  3.57383600  21.52204500  7.90703500
O  -0.35851500  20.61278400  9.11105100
O   2.16751600  25.21959700  8.17739600
O   2.14700000  20.90100100  8.38100000
O   1.04500000  18.46000000  8.38400000
O   3.71000000  23.07500000  8.38400000
O   0.28550900  20.18406700  6.57883200
O   3.83662200  24.66193000  6.17742400
O   3.76905500  21.36096500  6.29345600
Si  6.21191400  10.75997500  7.85545700
Si  6.22749100  16.88778800  7.99393700
Si  8.87718600  15.40093800  8.07547500
Si  8.88546600  12.35622700  7.92769700
O   4.81100000  11.40400000  8.38100000
O   4.84282000  16.22331700  8.52058400
O   7.52910300  16.13127400  8.62859600
O   7.47600000  11.67100000  8.38100000
O   6.39654500  9.25657800  8.43696600
O   8.97289700  13.85397700  8.58882900
O   6.18651300  10.65015000  6.23411900
O   6.34223500  16.73630900  6.37230400
O   8.85317500  15.38711700  6.43252900
O   8.99504900  12.49810300  6.30032700
Si  6.21511700  20.01689300  7.99967800
Si  6.22280600  26.17720800  7.89545400
Si  8.88163500  24.57175600  7.92123700
Si  8.85185700  21.52484300  8.04426500
O   4.83011400  20.68983400  8.53672100
O   4.81100000  25.51600000  8.38100000
O   7.47600000  25.24900000  8.38100000
O   7.51357500  20.78969200  8.61571800
O   6.27274900  18.45310600  8.45645100
O   8.96075700  23.06566900  8.56586100
O   6.31587100  20.15597200  6.37628500
O   6.19315000  26.36434700  6.28163000
O   8.99846600  24.44099800  6.29267800
O   8.80323700  21.55234100  6.40246100
O   6.39515700  27.65586600  8.54356600
Si  11.54093500  10.90518800  7.70286500
Si  11.54412400  16.89405100  7.93033700
Si  14.20275400  15.39723900  7.87715700
Si  14.23577100  12.29404200  7.89826200
O   10.14000000  11.40400000  8.38100000
O   10.19310800  16.22657900  8.56055400
O   12.85088700  16.09714300  8.48925600
O   12.80500000  11.67100000  8.38100000
O   11.69953600  9.30058200  7.89021300
O   14.36800000  13.84500000  8.38400000
O   11.52607200  11.21386100  6.10035100
O   11.53227200  16.72568100  6.30395500
O   14.13471200  15.44190700  6.25019400
O   14.36637600  12.11602100  6.28716300
Si  11.52110800  20.03479700  7.88363600
Si  11.54065300  26.01902400  7.70697800
Si  14.23573800  24.62770600  7.89879300
Si  14.20832900  21.53079100  7.86600600
O   10.16893500  20.69423000  8.51439200
O   10.14000000  25.51600000  8.38100000
O   12.80500000  25.24900000  8.38100000
O   12.80656500  20.89108500  8.40602700
O   11.64349500  18.47184100  8.32965300
O   14.36800000  23.07500000  8.38400000
O   11.49805500  20.15445900  6.25538200
O   11.52852800  25.72061400  6.10263300
O   14.36469500  24.79713800  6.28684200
O   14.22323600  21.46210300  6.22855800
O   11.70071300  27.62230000  7.90466600
Si  16.94848800  16.87160200  8.04462800
O   15.47153400  11.46936800  8.55581300
O   15.46900000  16.28600000  8.38100000
O   18.07318100  16.21183400  9.01272900
O   17.32886400  16.54936000  6.49323500
Si  16.79455500  19.92928600  7.72960300
O   15.46900000  20.63400000  8.38100000
O   15.47183500  25.45181700  8.55453300
O   18.11482600  20.83470100  8.01948300
O   17.03200000  18.46000000  8.38400000
O   16.59854100  19.82584500  6.11904900
H  -0.43500200  15.45289400  9.26692900
H   1.75110100  12.10123000  9.04504400
H   0.21686200  15.90450700  6.14131100
H   3.04299400  15.35771300  5.68603400
H   3.08103900  12.61407000  5.64790700
H  -0.11185600  20.79672500  10.02234200
H   1.69602300  24.83492800  8.92199200
H   0.06925900  21.06827700  6.26662100
H   3.17694600  24.28839700  5.58592600
H   3.04410500  21.56532600  5.69483600
H   6.85958200  9.16812500  9.27448000
H   5.49727000  11.18629500  5.81639200
H   5.53611900  16.39622600  5.94586300
H   8.06737700  15.81327600  6.04612900
H   8.86234600  13.39470800  5.95768000
H   5.51347600  20.49757400  5.94777400
H   5.50670900  25.84896600  5.83499100
H   8.84748900  23.54867800  5.94436300
H   8.02049300  21.11562000  6.02297100
H   6.85697300  27.72151900  9.38417300
H   12.07413000  8.97968000  8.71565500
H   10.73909800  11.69789900  5.80145500
H   10.72366500  16.35605100  5.92307000
H   13.31038000  15.80265500  5.89186800
H   13.52807500  11.98318300  5.82386600
H   10.69412500  20.52566600  5.86846800
H   10.74149600  25.23961300  5.79905800
H   13.52772700  24.94224300  5.82489400
H   13.38742200  21.20480200  5.81691500
H   12.07326700  27.93785100  8.73306500
H   15.82964200  11.79746900  9.38526200
H   18.14690900  15.25289100  9.00828200
H   16.62799300  16.64861800  5.84103100
H   15.82735200  25.13014600  9.38762600
H   18.51732800  20.77067900  8.89050000
H   15.81766500  20.29648600  5.78928000
P   4.93665600  12.10398700  11.28696600
O   2.93672200  14.24111300  14.09993900
O   0.57474000  12.06405100  14.02783200
O   0.02827600  13.86391400  12.12519200
O   4.94428500  12.85279100  12.72602300
O   0.44511500  16.71645300  12.32438400
O   5.62367300  10.76841000  11.38397600
O   5.84734600  13.13883400  10.46682800
O   3.52490500  12.11827100  10.80344700
N   2.53384000  15.87283100  12.47471700
N   2.12121200  17.87451500  11.29675000
N   3.84836500  18.84356100  10.13722600
C   1.68614400  12.40961600  13.22274500
C   1.40534100  13.65419000  12.38107600
C   2.86907700  12.80893200  14.11397200
C   1.97284000  14.78221000  13.24487800
C   4.24183700  12.20396900  13.79094900
C   3.81222200  15.82431300  12.03531600
C   1.64609800  16.84779600  12.03436800
C   4.27946400  16.80493800  11.24228000
C   3.38623800  17.85216400  10.89937600
H   1.95585800  11.57001000  12.58599800
H   1.95408100  13.56998600  11.43994500
H   2.60740600  12.50502700  15.13062100
H   1.17707900  15.21196900  13.85372900
H   4.14856800  11.13820900  13.57733000
H   4.87574900  12.30725600  14.67285000
H  -0.21124800  12.37506900  13.57094100
H  -0.09419500  14.82746100  12.03907700
H   4.39894000  14.96956400  12.34061800
H   5.26717000  16.77212100  10.81581500
H   4.71185600  18.74824900  9.61908200
H   3.23682700  19.50864200  9.69279200
H   6.41989200  12.67649200  9.83206000
160
Step=4
Si  0.81108500  16.89138500  8.08122200
Si  3.57440300  15.39172900  7.89986800
Si  3.57130600  12.31404100  7.87488300
O  -0.34219600  16.39802600  9.11770400
O   2.14700000  16.01900000  8.38100000
O   2.14261800  11.70147500  8.34510500
O   3.71000000  13.84500000  8.38400000
O   0.40840500  16.76758800  6.50778500
O   3.77412100  15.56181800  6.28356900
O   3.68387400  12.20820300  6.24415300
Si  0.78745700  20.03111700  8.10951000
Si  3.61367400  24.59415600  7.79367000
Si  3.57495400  21.52386800  7.90618700
O  -0.36466200  20.61510400  9.09548200
O   2.16703700  25.21969800  8.18168600
O   2.14700000  20.90100100  8.38100000
O   1.04500000  18.46000000  8.38400000
O   3.71000000  23.07500000  8.38400000
O   0.29716800  20.17826700  6.56899000
O   3.83289100  24.66381300  6.17818500
O   3.77480200  21.35791700  6.29443400
Si  6.20719800  10.77183300  7.83415700
Si  6.22849900  16.88661500  7.99955200
Si  8.87700200  15.40008100  8.08279300
Si  8.88671200  12.35779400  7.92854600
O   4.81100000  11.40400000  8.38100000
O   4.84440600  16.22082600  8.51981700
O   7.52843200  16.13001900  8.63513100
O   7.47600000  11.67100000  8.38100000
O   6.39522800  9.25498900  8.37771500
O   8.97239400  13.85266600  8.59522600
O   6.17414300  10.70379600  6.21093700
O   6.34779900  16.74824800  6.37772200
O   8.85323300  15.38796800  6.43981400
O   8.99697400  12.50309100  6.30215900
Si  6.21799500  20.01691200  8.01075600
Si  6.22283200  26.17673800  7.89505500
Si  8.88183600  24.57089700  7.92262100
Si  8.85517100  21.52394200  8.05215000
O   4.83196800  20.69558000  8.54250200
O   4.81100000  25.51600000  8.38100000
O   7.47600000  25.24900000  8.38100000
O   7.51581700  20.79038700  8.62384100
O   6.27022700  18.45194600  8.47438700
O   8.96199900  23.06598600  8.56989900
O   6.31791900  20.14286600  6.38702600
O   6.19281400  26.36293900  6.28105600
O   8.99920100  24.43717500  6.29428900
O   8.80709600  21.54656300  6.41038700
O   6.39523300  27.65588500  8.54220600
Si  11.54093900  10.90537900  7.70271100
Si  11.54319200  16.89179200  7.94083200
Si  14.20204500  15.39734700  7.87888100
Si  14.23570000  12.29411600  7.89841500
O   10.14000000  11.40400000  8.38100000
O   10.19262900  16.22351400  8.57037700
O   12.85122300  16.09461300  8.49559300
O   12.80500000  11.67100000  8.38100000
O   11.69925300  9.30069000  7.89003800
O   14.36800000  13.84500000  8.38400000
O   11.52611000  11.21401200  6.10018600
O   11.52920600  16.72822500  6.31396500
O   14.13026800  15.44392200  6.25209700
O   14.36677600  12.11598100  6.28727900
Si  11.52252100  20.03062300  7.90057600
Si  11.54054200  26.01873400  7.70690000
Si  14.23511900  24.62715800  7.89749200
Si  14.20528200  21.52824700  7.87250800
O   10.17043500  20.69376700  8.52792400
O   10.14000000  25.51600000  8.38100000
O   12.80500000  25.24900000  8.38100000
O   12.81105300  20.88124600  8.42479100
O   11.64248000  18.46780500  8.34544200
O   14.36800000  23.07500000  8.38400000
O   11.50020000  20.14951500  6.27209300
O   11.52808200  25.72020500  6.10255200
O   14.36310300  24.79565000  6.28529500
O   14.21222800  21.45721100  6.23509900
O   11.70062200  27.62216400  7.90426300
Si  16.94874300  16.87130600  8.04583300
O   15.47147900  11.46936900  8.55609500
O   15.46900000  16.28600000  8.38100000
O   18.07269600  16.21244700  9.01577300
O   17.33174000  16.54795300  6.49516700
Si  16.79243600  19.92801100  7.72722100
O   15.46900000  20.63400000  8.38100000
O   15.47201400  25.45175800  8.55149400
O   18.11382500  20.83385200  8.01107200
O   17.03200000  18.46000000  8.38400000
O   16.59103700  19.82166100  6.11744700
H  -0.40386400  15.46266600  9.33215500
H   1.82432600  12.05763100  9.18208800
H   0.19362500  15.89434000  6.16653500
H   3.04968200  15.36207000  5.68376900
H   2.99004200  12.58033900  5.69353800
H  -0.12437500  20.79970000  10.00808400
H   1.69623700  24.83377300  8.92592200
H   0.08358000  21.06128400  6.25231500
H   3.17209300  24.29178100  5.58717800
H   3.05247500  21.55971900  5.69209500
H   6.83804000  9.15197100  9.22518200
H   5.47157000  11.23966800  5.81420400
H   5.54304700  16.41236400  5.94822600
H   8.06776900  15.81291900  6.05264600
H   8.86347100  13.40021600  5.96011800
H   5.51615200  20.48022400  5.95484700
H   5.50570000  25.84829100  5.83485400
H   8.84953200  23.54412800  5.94747500
H   8.02496000  21.10887600  6.03130700
H   6.85780200  27.72261000  9.38220800
H   12.07391100  8.97929100  8.71513600
H   10.73953800  11.69798000  5.80070900
H   10.72029100  16.36004400  5.93236600
H   13.30579200  15.80647000  5.89587400
H   13.52903800  11.98228200  5.82346100
H   10.69786600  20.52261900  5.88382600
H   10.74138300  25.23866300  5.79917900
H   13.52637100  24.94171500  5.82337300
H   13.37586300  21.19768300  5.82586400
H   12.07386700  27.93821300  8.73205000
H   15.83018900  11.79743100  9.38518400
H   18.14664300  15.25364700  9.01257500
H   16.63225900  16.64585500  5.84140500
H   15.82899900  25.13049600  9.38399900
H   18.51981600  20.77108500  8.88046400
H   15.80929300  20.29209000  5.78980200
P   4.94362300  11.98061100  11.37126300
O   3.01171600  14.22302500  14.19598800
O   0.59391600  12.14492500  14.16331300
O   0.09245700  13.90058800  12.22109100
O   4.95310800  12.76383800  12.79547500
O   0.49638000  16.75274100  12.50308300
O   5.67235200  10.67538600  11.48120700
O   5.84813300  13.05470100  10.59048700
O   3.53630400  11.98456200  10.87830900
N   2.58500900  15.88961900  12.61172800
N   2.15776100  17.89415600  11.44866700
N   3.84559600  18.85474400  10.22630500
C   1.70169400  12.43373400  13.32983900
C   1.46082700  13.68694800  12.49678200
C   2.90616000  12.79586700  14.20268000
C   2.03129500  14.79134800  13.38187100
C   4.24982900  12.15940500  13.87903100
C   3.85374200  15.84298300  12.15040300
C   1.69284900  16.87577000  12.19348000
C   4.31299900  16.81834300  11.34481300
C   3.40973800  17.86759500  11.01075100
H   1.93037400  11.58056700  12.68758100
H   2.03979800  13.59435000  11.57173300
H   2.65725000  12.47958300  15.22090500
H   1.23230300  15.21686900  13.99413100
H   4.11086900  11.08990100  13.69763900
H   4.89411000  12.26992000  14.75301500
H  -0.18962300  12.49812100  13.71939800
H  -0.02736900  14.86489000  12.14508900
H   4.43957800  14.98462000  12.45537400
H   5.29607600  16.77913700  10.90626400
H   4.69965600  18.75842300  9.69239300
H   3.22068000  19.51711600  9.78867900
H   6.42051200  12.62744200  9.93202100
160
Step=5
Si  0.80286600  16.88785600  8.10969200
Si  3.57171300  15.38997700  7.89777800
Si  3.54911200  12.30281100  7.91131600
O  -0.32408900  16.40702600  9.17889700
O   2.14700000  16.01900000  8.38100000
O   2.13922900  11.70147800  8.44867200
O   3.71000000  13.84500000  8.38400000
O   0.35440600  16.74913400  6.55030000
O   3.77331800  15.56172600  6.28275300
O   3.59911600  12.17431300  6.27723400
Si  0.78806100  20.02871600  8.09719300
Si  3.61194600  24.59567600  7.79594800
Si  3.57509800  21.52569800  7.90443000
O  -0.37603600  20.61734100  9.06605500
O   2.16629300  25.22063200  8.18986100
O   2.14700000  20.90100000  8.38100000
O   1.04500000  18.46000000  8.38400000
O   3.71000000  23.07500000  8.38400000
O   0.31818900  20.16752400  6.55003200
O   3.82552500  24.66644900  6.17983300
O   3.77772500  21.35523500  6.29430800
Si  6.20215400  10.77898400  7.81918800
Si  6.22729300  16.88584900  8.00209100
Si  8.87521400  15.39903700  8.08594800
Si  8.88796300  12.35740300  7.92773700
O   4.81100000  11.40400000  8.38100000
O   4.84379500  16.21673300  8.51562400
O   7.52650400  16.12919000  8.63753900
O   7.47600000  11.67100000  8.38100000
O   6.39184800  9.25454200  8.34080100
O   8.96955900  13.85122200  8.59678400
O   6.15581300  10.73567900  6.19588400
O   6.35193900  16.76275500  6.37999900
O   8.85314300  15.38904900  6.44276000
O   9.00093400  12.50368400  6.30244600
Si  6.22010000  20.01524600  8.02035100
Si  6.22288000  26.17562700  7.89372500
Si  8.88188800  24.56919600  7.92551400
Si  8.85811100  21.52204200  8.06602100
O   4.83270200  20.69957600  8.54635100
O   4.81100000  25.51600000  8.38100000
O   7.47600000  25.24900000  8.38100000
O   7.51636700  20.78838900  8.63452900
O   6.26309600  18.45001000  8.49163300
O   8.96180700  23.06611000  8.57796400
O   6.32201400  20.13143900  6.39670500
O   6.19247200  26.35895500  6.27934900
O   8.99953500  24.43100500  6.29751900
O   8.81525800  21.53973900  6.42425200
O   6.39543400  27.65597600  8.53816100
Si  11.54115200  10.90405900  7.70411600
Si  11.54135200  16.88924100  7.95193600
Si  14.20106400  15.39749800  7.88084000
Si  14.23558400  12.29425600  7.89837500
O   10.14000000  11.40400000  8.38100000
O   10.19073800  16.21881100  8.57837200
O   12.85084200  16.09151800  8.50232000
O   12.80500000  11.67100000  8.38100000
O   11.69947000  9.29976400  7.89509800
O   14.36800000  13.84500000  8.38400000
O   11.52728900  11.20868300  6.10082600
O   11.52631400  16.73313600  6.32439000
O   14.12497600  15.44612400  6.25435800
O   14.36686800  12.11626700  6.28717400
Si  11.52398600  20.02629100  7.92423000
Si  11.54034600  26.01793000  7.70650000
Si  14.23415500  24.62616400  7.89556600
Si  14.20041600  21.52488700  7.88225400
O   10.17174300  20.69314400  8.54843500
O   10.14000000  25.51600000  8.38100000
O   12.80500000  25.24900000  8.38100000
O   12.81829800  20.86595600  8.45287600
O   11.63926200  18.46273900  8.36563100
O   14.36800000  23.07500000  8.38400000
O   11.50337100  20.14746600  6.29561200
O   11.52722800  25.71843500  6.10231400
O   14.36041400  24.79264500  6.28301400
O   14.19343200  21.44979900  6.24517800
O   11.70045500  27.62160700  7.90251200
Si  16.94955200  16.87045200  8.04886400
O   15.47166100  11.46957300  8.55577300
O   15.46900000  16.28600000  8.38100000
O   18.07098900  16.21342500  9.02322600
O   17.33771500  16.54434000  6.49995600
Si  16.78844600  19.92551000  7.72272600
O   15.46900000  20.63400000  8.38100000
O   15.47227200  25.45151900  8.54664200
O   18.11185200  20.83219000  7.99459800
O   17.03200000  18.46000000  8.38400000
O   16.57655500  19.81288600  6.11464700
H  -0.34254400  15.48558600  9.45133500
H   1.96955600  11.93628700  9.37179500
H   0.13056400  15.87209900  6.22485200
H   3.05206400  15.35446400  5.68139700
H   2.88901200  12.54924600  5.74946200
H  -0.14862900  20.80085300  9.98225500
H   1.69660800  24.83244400  8.93357400
H   0.10716900  21.04815000  6.22527800
H   3.16269300  24.29581700  5.59026700