160
Step=1
Si  0.82550300  16.90273300  8.02672800
Si  3.57859300  15.40405400  7.91524300
Si  3.61525300  12.32827200  7.79142800
O  -0.39399300  16.38822500  8.97049800
O   2.14700000  16.01900000  8.38100000
O   2.16833100  11.70013100  8.17359000
O   3.71000000  13.84500000  8.38400000
O   0.51413300  16.82449500  6.43064600
O   3.78242900  15.56381400  6.30078700
O   3.83835800  12.26151700  6.17639000
Si  0.79040500  20.03770000  8.11798300
Si  3.61646600  24.59144300  7.78977800
Si  3.57392300  21.51644700  7.91298100
O  -0.36656700  20.60916400  9.10618700
O   2.16894300  25.21986200  8.16918500
O   2.14700000  20.90100000  8.38100000
O   1.04500000  18.46000000  8.38400000
O   3.71000000  23.07500000  8.38400000
O   0.28796900  20.17942500  6.58029600
O   3.84322900  24.65740300  6.17523000
O   3.76807200  21.35886600  6.29712000
Si  6.22270300  10.74479000  7.89204900
Si  6.22770100  16.89731300  8.01236700
Si  8.87567200  15.40393500  8.07146700
Si  8.88270000  12.35331700  7.92738900
O   4.81100000  11.40400000  8.38100000
O   4.84026700  16.22821100  8.54553500
O   7.53252400  16.13445000  8.63606400
O   7.47600000  11.67100000  8.38100000
O   6.39553700  9.26420200  8.53484800
O   8.97115800  13.85656800  8.57903200
O   6.19358000  10.56500300  6.27778400
O   6.34068200  16.74021400  6.38952300
O   8.84554300  15.39082800  6.42808100
O   8.99617600  12.49448500  6.29922600
Si  6.21638800  20.01550500  8.00088200
Si  6.22275700  26.17797500  7.89639700
Si  8.88164500  24.57359600  7.91870100
Si  8.85075300  21.52826000  8.03684200
O   4.83212200  20.68555700  8.53863800
O   4.81100000  25.51600000  8.38100000
O   7.47600000  25.24900000  8.38100000
O   7.51705000  20.79206800  8.61378700
O   6.27927000  18.45840700  8.45642100
O   8.96178700  23.06765900  8.56086500
O   6.31668600  20.15996000  6.37582700
O   6.19404500  26.36676300  6.28308200
O   8.99771800  24.44641200  6.28994600
O   8.79833300  21.55854500  6.39502400
O   6.39500700  27.65560300  8.54611700
Si  11.54077800  10.90435200  7.70392400
Si  11.54475400  16.89739000  7.91695200
Si  14.20353600  15.39713000  7.87470900
Si  14.23582000  12.29374200  7.89821800
O   10.14000000  11.40400000  8.38100000
O   10.19474400  16.23030400  8.55061100
O   12.85059900  16.10098600  8.48098100
O   12.80500000  11.67100000  8.38100000
O   11.70002200  9.30021600  7.89283400
O   14.36800000  13.84500000  8.38400000
O   11.52647400  11.21103000  6.10107400
O   11.53153700  16.72019100  6.29171000
O   14.13836300  15.44005700  6.24791000
O   14.36592100  12.11520300  6.28747400
Si  11.52107500  20.04305300  7.85872200
Si  11.54104400  26.02008600  7.70790700
Si  14.23698900  24.62924600  7.90141000
Si  14.21263200  21.53527600  7.85646400
O   10.17156500  20.69916000  8.49678400
O   10.14000000  25.51600000  8.38100000
O   12.80500000  25.24900000  8.38100000
O   12.80500000  20.90100000  8.38100000
O   11.64364400  18.47899300  8.30700800
O   14.36800000  23.07500000  8.38400000
O   11.49649700  20.16818400  6.23103200
O   11.52980000  25.72254300  6.10357100
O   14.36785300  24.80206500  6.29032800
O   14.23459300  21.46715800  6.21933400
O   11.70097800  27.62284100  7.90688300
Si  16.94924900  16.87134200  8.04468200
O   15.47125000  11.46932700  8.55584000
O   15.46900000  16.28600000  8.38100000
O   18.07446200  16.21289800  9.01232900
O   17.32777000  16.54921100  6.49331000
Si  16.79747600  19.93081100  7.73267200
O   15.46900000  20.63400000  8.38100000
O   15.47112700  25.45237000  8.56102300
O   18.11634100  20.83520200  8.03021800
O   17.03200000  18.46000000  8.38400000
O   16.60876900  19.83038400  6.12139200
H  -0.50423300  15.43969800  9.08178100
H   1.69998200  12.07828000  8.92297400
H   0.31527800  15.96291600  6.05244500
H   3.06011700  15.36094400  5.69970900
H   3.18226100  12.64156700  5.58570400
H  -0.12746500  20.79216800  10.01912000
H   1.69595600  24.83705400  8.91328400
H   0.06870200  21.06154600  6.26602500
H   3.18504400  24.28262500  5.58349200
H   3.04237600  21.56618400  5.70151800
H   6.86261700  9.19605300  9.37200300
H   5.50488200  11.07966300  5.83436100
H   5.53947200  16.40054300  5.95952200
H   8.05967300  15.81862300  6.04527900
H   8.86604800  13.39292800  5.95934400
H   5.51369500  20.50210000  5.95097600
H   5.50812300  25.85154700  5.83617100
H   8.84698100  23.55488100  5.94014900
H   8.01534700  21.12144600  6.01740500
H   6.85640200  27.71938900  9.38677000
H   12.07465600  8.98126900  8.71867800
H   10.73932800  11.69412400  5.80207300
H   10.72188000  16.34829400  5.91526700
H   13.31446500  15.80088700  5.88887800
H   13.52713000  11.98281400  5.82547800
H   10.69115600  20.54020200  5.84772900
H   10.74283600  25.24201400  5.79986200
H   13.53075200  24.94716800  5.82892500
H   13.39832300  21.21040200  5.80701700
H   12.07260100  27.93684500  8.73599200
H   15.82850300  11.79809400  9.38506500
H   18.14928400  15.25438700  9.00788300
H   16.62567000  16.64916100  5.84290700
H   15.82415900  25.12896100  9.39417300
H   18.51458400  20.76863300  8.90270000
H   15.82968300  20.30123600  5.78901700
P   9.42287100  18.38416800  10.99850700
O   5.79995000  18.06302200  12.97825800
O   3.89850700  15.79053300  12.21162200
O   2.80406900  17.97505500  11.14780100
O   8.29434900  17.86524300  12.02869000
O   3.06206700  20.80666400  11.62126200
O   10.66624500  17.53351700  11.10830600
O   9.73927100  19.92624400  11.27702800
O   8.84569000  18.38573200  9.59694900
N   5.20238700  20.10498100  11.85013200
N   4.66947600  22.28519400  11.03726200
N   6.41323600  23.58852400  10.20438900
C   4.80141300  16.54187400  11.43649000
C   4.21241300  17.94054600  11.14931400
C   6.09284000  16.87700300  12.23726100
C   4.75897200  18.79936400  12.31738900
C   7.32124600  17.12861900  11.34468300
C   6.53546500  20.32429900  11.71286900
C   4.25744200  21.07549700  11.50561700
C   6.93929600  21.50249900  11.22060600
C   5.96700100  22.46263800  10.85814500
H   5.01145200  15.97485500  10.51784500
H   4.56846100  18.33001500  10.18084000
H   6.29711800  16.09694300  12.98500300
H   3.96890000  18.95324400  13.06434900
H   7.03778500  17.73254500  10.46439500
H   7.78010300  16.19515700  10.97515800
H   2.98719200  16.00769700  11.91373300
H   2.56957800  18.92801600  11.21179000
H   7.22180800  19.53813400  11.97667400
H   7.98127700  21.69747400  11.03545900
H   7.30437400  23.54016100  9.70278800
H   5.76151400  24.16899400  9.68709900
H   9.95460000  20.26868200  10.38242200
160
Step=2
Si  0.82566500  16.90288200  8.02733800
Si  3.57909800  15.40498300  7.91906100
Si  3.61620100  12.32872600  7.79024400
O  -0.39286600  16.38671700  8.97214300
O   2.14700000  16.01900000  8.38100000
O   2.16859800  11.70055700  8.17058700
O   3.71000000  13.84500000  8.38400000
O   0.51295000  16.82415000  6.43118300
O   3.78354800  15.56573200  6.30477700
O   3.84105200  12.26219200  6.17530400
Si  0.78917100  20.03954400  8.12731000
Si  3.61326800  24.58983700  7.79208800
Si  3.57436200  21.51676600  7.91206400
O  -0.34738000  20.60963400  9.13949100
O   2.16794600  25.22197500  8.17311000
O   2.14700000  20.90100000  8.38100000
O   1.04500000  18.46000000  8.38400000
O   3.71000000  23.07500000  8.38400000
O   0.26262000  20.19240900  6.59830400
O   3.83774500  24.65998000  6.17764800
O   3.76823200  21.35959500  6.29557200
Si  6.22281400  10.74421700  7.89365800
Si  6.22724900  16.89802600  8.01375300
Si  8.87087000  15.40001600  8.06432600
Si  8.88193700  12.35113900  7.92472400
O   4.81100000  11.40400000  8.38100000
O   4.84023800  16.23074800  8.55193400
O   7.52850200  16.13017300  8.63332400
O   7.47600000  11.67100000  8.38100000
O   6.39514000  9.26431400  8.53870500
O   8.96803300  13.85287900  8.57333200
O   6.19351100  10.56155100  6.27950100
O   6.33573400  16.74580900  6.38907100
O   8.83667800  15.38588200  6.41919800
O   8.99534200  12.48883700  6.29610900
Si  6.21877500  20.01415200  8.00100700
Si  6.22314000  26.17508700  7.88652700
Si  8.88291100  24.57166900  7.92261400
Si  8.85348700  21.52635200  8.04964400
O   4.83312000  20.68425300  8.53413600
O   4.81100000  25.51600000  8.38100000
O   7.47600000  25.24900000  8.38100000
O   7.51738400  20.79315700  8.61222400
O   6.27862600  18.45847100  8.46024600
O   8.95985700  23.06882600  8.57851000
O   6.32077400  20.16011200  6.37524500
O   6.19608600  26.35221100  6.27241600
O   8.99985100  24.43931000  6.29499400
O   8.80816100  21.55932100  6.40860000
O   6.39658400  27.65601600  8.52675300
Si  11.54088800  10.90341000  7.70501200
Si  11.54095000  16.89242100  7.92228400
Si  14.20307500  15.39702100  7.87460500
Si  14.23583800  12.29382100  7.89846900
O   10.14000000  11.40400000  8.38100000
O   10.19273100  16.21562500  8.54095900
O   12.84992900  16.09556200  8.48187600
O   12.80500000  11.67100000  8.38100000
O   11.70056800  9.29936100  7.89641600
O   14.36800000  13.84500000  8.38400000
O   11.52729800  11.20753800  6.10158000
O   11.53020700  16.72142900  6.29505600
O   14.13742300  15.44091100  6.24753100
O   14.36624200  12.11434100  6.28764800
Si  11.52453300  20.03758800  7.87374500
Si  11.54110000  26.01853900  7.70675600
Si  14.23666100  24.62868400  7.90071900
Si  14.21154600  21.53352800  7.86038700
O   10.17715600  20.69974400  8.51836100
O   10.14000000  25.51600000  8.38100000
O   12.80500000  25.24900000  8.38100000
O   12.80924500  20.89530100  8.39368300
O   11.64584400  18.47414500  8.31372200
O   14.36800000  23.07500000  8.38400000
O   11.49777900  20.16815800  6.24590600
O   11.52895700  25.71980500  6.10262500
O   14.36711500  24.80036800  6.28931600
O   14.23062200  21.46564100  6.22303000
O   11.70039200  27.62108700  7.90573500
Si  16.94900200  16.87132000  8.04509300
O   15.47142700  11.46946600  8.55644200
O   15.46900000  16.28600000  8.38100000
O   18.07451900  16.21311100  9.01302900
O   17.32877600  16.54900500  6.49379300
Si  16.79621000  19.93010500  7.73138500
O   15.46900000  20.63400000  8.38100000
O   15.47122500  25.45234600  8.55927800
O   18.11573700  20.83485900  8.02583300
O   17.03200000  18.46000000  8.38400000
O   16.60475300  19.82840800  6.12033700
H  -0.50211500  15.43797100  9.08356900
H   1.69916100  12.07873400  8.91950900
H   0.31431900  15.96234100  6.05302900
H   3.06151100  15.36301000  5.70309700
H   3.18557400  12.64224500  5.58364400
H  -0.08432500  20.78767600  10.04808300
H   1.69456100  24.83946600  8.91742200
H   0.03976600  21.07699400  6.29325400
H   3.17837300  24.28719000  5.58575100
H   3.04234900  21.56704000  5.70015900
H   6.86217700  9.19695900  9.37612500
H   5.50463400  11.07535800  5.83499400
H   5.53385100  16.41010400  5.95888300
H   8.04920900  15.81343800  6.04021300
H   8.86505000  13.38737000  5.95539000
H   5.51742500  20.50343900  5.95126100
H   5.51162300  25.83417600  5.82634600
H   8.84767900  23.54870800  5.94469200
H   8.02431700  21.12270500  6.02997800
H   6.85873500  27.72580600  9.36706600
H   12.07497000  8.98138300  8.72290400
H   10.73994400  11.69003500  5.80142100
H   10.72010800  16.34658900  5.92099500
H   13.31224600  15.80139900  5.89001500
H   13.52756000  11.98108900  5.82533500
H   10.69506400  20.54205000  5.86163200
H   10.74214400  25.23879600  5.79901200
H   13.53016900  24.94533900  5.82742200
H   13.39500100  21.20814800  5.81088000
H   12.07208800  27.93396600  8.73525100
H   15.82897700  11.79833700  9.38567600
H   18.14978500  15.25447600  9.00885800
H   16.62713600  16.64823700  5.84256600
H   15.82505600  25.12959200  9.39255500
H   18.51572600  20.76926700  8.89776700
H   15.82497800  20.29926800  5.78881400
P   9.49205600  18.35974300  11.00265800
O   5.83642700  18.10816600  13.01477400
O   3.96942000  15.82453500  12.30787500
O   2.84705900  17.97972000  11.23458200
O   8.33694100  17.88069800  12.02857500
O   3.09074500  20.80156200  11.69593800
O   10.73131800  17.53803200  11.23812900
O   9.76624000  19.91077200  11.31582600
O   8.95656600  18.34396000  9.59745800
N   5.24196500  20.15142500  11.93532700
N   4.68976600  22.31001000  11.11396600
N   6.41177600  23.61736300  10.25562300
C   4.84417300  16.57743600  11.49969300
C   4.25351700  17.96928900  11.21868500
C   6.13053400  16.91641200  12.27244500
C   4.79787900  18.83382600  12.38022000
C   7.33955300  17.14114100  11.35742100
C   6.56798100  20.40462900  11.82159600
C   4.28524100  21.10463800  11.59461400
C   6.97047200  21.58464700  11.32557600
C   5.98414500  22.51259500  10.92689900
H   5.03828300  16.01238000  10.57576400
H   4.59790200  18.34289500  10.24187300
H   6.34043700  16.14147400  13.01696800
H   4.01111300  18.98161000  13.12549800
H   7.05530100  17.73503700  10.48003300
H   7.77709000  16.20578900  10.98927700
H   3.06285800  16.03597400  12.03882500
H   2.59824500  18.92045500  11.30556300
H   7.25607700  19.63075000  12.11323700
H   8.01437100  21.79320500  11.16384800
H   7.29350100  23.56224600  9.74721500
H   5.75570700  24.18381200  9.73073100
H   9.98002500  20.26673500  10.42839400
160
Step=3
Si  0.82567000  16.90300400  8.02919400
Si  3.57939500  15.40565200  7.92318900
Si  3.61683200  12.32904100  7.78980600
O  -0.39115700  16.38524500  8.97617200
O   2.14700000  16.01900000  8.38100000
O   2.16869100  11.70105400  8.16961900
O   3.71000000  13.84500000  8.38400000
O   0.50996200  16.82383400  6.43325000
O   3.78643600  15.56887700  6.30940700
O   3.84200900  12.26200400  6.17479400
Si  0.78872300  20.04128900  8.13535800
Si  3.61114700  24.58658000  7.79060600
Si  3.57613400  21.51628800  7.91526300
O  -0.33057500  20.61201000  9.16694600
O   2.16755200  25.22324200  8.16965400
O   2.14700000  20.90100000  8.38100000
O   1.04500000  18.46000000  8.38400000
O   3.71000000  23.07500000  8.38400000
O   0.24241900  20.20112400  6.61371100
O   3.83796800  24.65939100  6.17682100
O   3.77303800  21.35723200  6.29873100
Si  6.22294900  10.74422500  7.89445200
Si  6.22615500  16.89790100  8.02256400
Si  8.86535800  15.39523800  8.06521700
Si  8.88110200  12.34938800  7.92337700
O   4.81100000  11.40400000  8.38100000
O   4.83794200  16.23196000  8.56382400
O   7.52156800  16.12389900  8.63866100
O   7.47600000  11.67100000  8.38100000
O   6.39471400  9.26429400  8.54038500
O   8.96387300  13.84713700  8.57244300
O   6.19337200  10.55995700  6.28014400
O   6.33155800  16.75526700  6.39573900
O   8.82648800  15.38097900  6.41794300
O   8.99484000  12.48538300  6.29431300
Si  6.22103900  20.01194700  8.01264200
Si  6.22365500  26.17392800  7.87704300
Si  8.88483900  24.57044800  7.92617700
Si  8.85578200  21.52401500  8.07102000
O   4.83390600  20.68355700  8.53742300
O   4.81100000  25.51600000  8.38100000
O   7.47600000  25.24900000  8.38100000
O   7.51738900  20.79551200  8.62003100
O   6.27543400  18.45744800  8.47497300
O   8.95617700  23.07221000  8.60071500
O   6.32701300  20.15693000  6.38589100
O   6.19828900  26.34195300  6.26310700
O   9.00356100  24.42982100  6.30068900
O   8.81817600  21.55666500  6.43076000
O   6.39796800  27.65640700  8.51114000
Si  11.54085200  10.90308600  7.70574700
Si  11.53678300  16.88617600  7.93516000
Si  14.20222900  15.39714500  7.87528900
Si  14.23577100  12.29411100  7.89877700
O   10.14000000  11.40400000  8.38100000
O   10.19335500  16.19406900  8.53398000
O   12.85039500  16.08817100  8.48609700
O   12.80500000  11.67100000  8.38100000
O   11.70104200  9.29886900  7.89847000
O   14.36800000  13.84500000  8.38400000
O   11.52778700  11.20562400  6.10186600
O   11.52668500  16.72680200  6.30431600
O   14.13406900  15.44409200  6.24794100
O   14.36662000  12.11364000  6.28779900
Si  11.52712800  20.03037900  7.90217000
Si  11.54152500  26.01706500  7.70520800
Si  14.23628900  24.62776900  7.89959600
Si  14.20868700  21.53043400  7.86790400
O   10.18267900  20.70447400  8.55558800
O   10.14000000  25.51600000  8.38100000
O   12.80500000  25.24900000  8.38100000
O   12.81444500  20.88765300  8.41698700
O   11.64994200  18.46785400  8.32939500
O   14.36800000  23.07500000  8.38400000
O   11.49711100  20.16641800  6.27395100
O   11.52860500  25.71508100  6.10175000
O   14.36652000  24.79797300  6.28778500
O   14.22115100  21.46247700  6.23029100
O   11.70037100  27.62039800  7.90025000
Si  16.94840200  16.87138500  8.04528700
O   15.47155300  11.46951600  8.55696500
O   15.46900000  16.28600000  8.38100000
O   18.07479300  16.21325500  9.01298100
O   17.32949300  16.54925300  6.49385800
Si  16.79365700  19.92872400  7.72886400
O   15.46900000  20.63400000  8.38100000
O   15.47146900  25.45211400  8.55676400
O   18.11448300  20.83421400  8.01662400
O   17.03200000  18.46000000  8.38400000
O   16.59585500  19.82448200  6.11852600
H  -0.49926500  15.43636100  9.08801900
H   1.69872900  12.07966500  8.91808600
H   0.31111500  15.96193100  6.05525200
H   3.06541800  15.36686200  5.70620400
H   3.18676100  12.64180900  5.58259700
H  -0.04546400  20.78630500  10.06980700
H   1.69227900  24.84234500  8.91383500
H   0.01717200  21.08725800  6.31488000
H   3.17937500  24.28774000  5.58316800
H   3.04825400  21.56414400  5.70165300
H   6.86175100  9.19677800  9.37786000
H   5.50454500  11.07330500  5.83495800
H   5.52904800  16.42454200  5.96318300
H   8.03698400  15.80851000  6.04367400
H   8.86366400  13.38405600  5.95407000
H   5.52423400  20.50021000  5.96127800
H   5.51499000  25.82258300  5.81642600
H   8.85099500  23.53891700  5.95062900
H   8.03396400  21.11996200  6.05239300
H   6.86040700  27.73081500  9.35101500
H   12.07540200  8.98117200  8.72513400
H   10.74023600  11.68757100  5.80101300
H   10.71572600  16.34890300  5.93474300
H   13.30692700  15.80499700  5.89457900
H   13.52828200  11.97933600  5.82509800
H   10.69809100  20.54335000  5.88671300
H   10.74242200  25.23315900  5.79839000
H   13.53015500  24.94283600  5.82488300
H   13.38558900  21.20405300  5.81921200
H   12.07356900  27.93667500  8.72827100
H   15.82950500  11.79820000  9.38615300
H   18.15068700  15.25462100  9.00888500
H   16.62845200  16.64762300  5.84178200
H   15.82630700  25.13027200  9.39003500
H   18.51794600  20.77066600  8.88716600
H   15.81464500  20.29525100  5.78969700
P   9.52700400  18.34631500  11.00036800
O   5.86134100  18.14905800  13.05543800
O   4.03068800  15.85455000  12.41051700
O   2.87609500  17.97491200  11.31288800
O   8.36214400  17.90420100  12.04079800
O   3.12614500  20.78328700  11.75383900
O   10.74844300  17.54091800  11.32262800
O   9.77504000  19.90107400  11.37383200
O   8.97575500  18.34635200  9.62147400
N   5.28668700  20.17601500  11.99789700
N   4.71574100  22.30692200  11.16010200
N   6.40606900  23.62979600  10.29122100
C   4.87663000  16.60989300  11.57106900
C   4.28177100  17.99228300  11.29012300
C   6.15747600  16.95296000  12.31802500
C   4.82950800  18.85867700  12.44083500
C   7.33993200  17.16034300  11.38468000
C   6.60485100  20.45067200  11.88954900
C   4.31961300  21.10891700  11.64529200
C   7.00924400  21.63029400  11.38413400
C   6.00559400  22.53471800  10.96265800
H   5.05684500  16.05214900  10.64174200
H   4.62230100  18.34850200  10.30848100
H   6.37863100  16.18541800  13.06184100
H   4.04026500  19.02335500  13.17661700
H   7.05659800  17.73910000  10.50556400
H   7.75695000  16.22017700  11.02001300
H   3.12272800  16.06054700  12.16572100
H   2.60753100  18.90548200  11.38742100
H   7.29162500  19.67783500  12.19873100
H   8.05602300  21.84604200  11.23853100
H   7.27977600  23.57639200  9.78487600
H   5.74321400  24.18467400  9.76547300
H   9.99928700  20.27523100  10.49910300
160
Step=4
Si  0.82647800  16.90350100  8.02862500
Si  3.58113300  15.40708300  7.92826400
Si  3.61771900  12.32959200  7.78894200
O  -0.39146800  16.38448200  8.97386100
O   2.14700000  16.01900000  8.38100000
O   2.16870900  11.70173900  8.16653000
O   3.71000000  13.84500000  8.38400000
O   0.51187100  16.82572300  6.43224000
O   3.79508700  15.57541800  6.31583400
O   3.84470600  12.26328900  6.17411500
Si  0.78764200  20.04228600  8.14357000
Si  3.60936000  24.58457200  7.78826100
Si  3.57940100  21.51417000  7.92213100
O  -0.32110100  20.61077500  9.18917900
O   2.16730800  25.22426200  8.16735800
O   2.14700000  20.90100000  8.38100000
O   1.04500000  18.46000000  8.38400000
O   3.71000000  23.07500000  8.38400000
O   0.22674600  20.20495500  6.62772800
O   3.83767900  24.65866800  6.17481100
O   3.78353700  21.35055300  6.30664400
Si  6.22316500  10.74401900  7.89526100
Si  6.22662900  16.89928700  8.04583100
Si  8.86141400  15.39182000  8.07623300
Si  8.88077500  12.34885400  7.92390500
O   4.81100000  11.40400000  8.38100000
O   4.83524800  16.23121200  8.58151000
O   7.51558700  16.11345500  8.65638500
O   7.47600000  11.67100000  8.38100000
O   6.39457400  9.26436800  8.54246200
O   8.96038200  13.84203500  8.57831600
O   6.19360800  10.55777800  6.28095900
O   6.33089000  16.77087100  6.41761600
O   8.81514100  15.37964600  6.42807700
O   8.99536300  12.48723500  6.29480900
Si  6.22453600  20.00940000  8.03903700
Si  6.22400100  26.17198200  7.86758400
Si  8.88708500  24.56692200  7.93315400
Si  8.86004500  21.52270200  8.10577600
O   4.83413700  20.68303500  8.55057300
O   4.81100000  25.51600000  8.38100000
O   7.47600000  25.24900000  8.38100000
O   7.51722100  20.79973000  8.64372600
O   6.27055300  18.45743800  8.50764800
O   8.95328700  23.07656900  8.63062400
O   6.33883000  20.14709700  6.41140400
O   6.19887500  26.32672300  6.25348500
O   9.00821800  24.41086100  6.31047900
O   8.82907300  21.55345800  6.46555900
O   6.39865100  27.65811800  8.49159200
Si  11.54058600  10.90350400  7.70575200
Si  11.53451900  16.88336400  7.94763100
Si  14.20128300  15.39768200  7.87659700
Si  14.23563700  12.29451800  7.89894800
O   10.14000000  11.40400000  8.38100000
O   10.19887500  16.17399800  8.53413300
O   12.85179400  16.08538400  8.49133300
O   12.80500000  11.67100000  8.38100000
O   11.70107400  9.29901000  7.89800900
O   14.36800000  13.84500000  8.38400000
O   11.52748300  11.20607600  6.10177400
O   11.52482800  16.73278200  6.31377000
O   14.13051000  15.44709000  6.24911100
O   14.36690600  12.11383200  6.28782100
Si  11.52720400  20.02774200  7.93017700
Si  11.54157200  26.01489100  7.70339900
Si  14.23587200  24.62684900  7.89850100
Si  14.20507900  21.52740800  7.87605200
O   10.19306600  20.71554900  8.60006300
O   10.14000000  25.51600000  8.38100000
O   12.80500000  25.24900000  8.38100000
O   12.82069800  20.87824300  8.44224000
O   11.65559200  18.46453600  8.34304500
O   14.36800000  23.07500000  8.38400000
O   11.48764700  20.17401200  6.30257800
O   11.52727000  25.70958100  6.10070500
O   14.36567600  24.79605000  6.28646300
O   14.20623900  21.45672900  6.23857500
O   11.69946200  27.61852300  7.89583900
Si  16.94824700  16.87108000  8.04631200
O   15.47150300  11.46944300  8.55697400
O   15.46900000  16.28600000  8.38100000
O   18.07428400  16.21365800  9.01537400
O   17.33187000  16.54804800  6.49541400
Si  16.79062700  19.92701000  7.72576400
O   15.46900000  20.63400000  8.38100000
O   15.47145800  25.45206800  8.55422400
O   18.11307500  20.83314000  8.00489700
O   17.03200000  18.46000000  8.38400000
O   16.58480500  19.81910700  6.11654300
H  -0.49859000  15.43555800  9.08591300
H   1.69735000  12.08098600  8.91371500
H   0.31394600  15.96420400  6.05302600
H   3.07655000  15.37514000  5.70915500
H   3.19053300  12.64387200  5.58131400
H  -0.02074400  20.78495200  10.08668800
H   1.69132600  24.84470000  8.91174700
H   0.00000900  21.09175100  6.33212800
H   3.18019400  24.28663900  5.58012400
H   3.06172700  21.55676200  5.70573100
H   6.86211100  9.19701600  9.37960400
H   5.50507600  11.07068700  5.83497400
H   5.52796800  16.44482500  5.98158900
H   8.02284700  15.80651900  6.05887400
H   8.86288700  13.38669300  5.95713700
H   5.53784200  20.48815600  5.98211200
H   5.51632600  25.80480700  5.80878700
H   8.85398900  23.51836000  5.96530800
H   8.04532200  21.11632000  6.08723900
H   6.86131900  27.73944600  9.33040700
H   12.07586100  8.98082300  8.72421400
H   10.73985000  11.68787000  5.80109600
H   10.71522500  16.34915000  5.94793000
H   13.30277800  15.81046500  5.89983400
H   13.52906500  11.97819300  5.82483400
H   10.69008900  20.55656100  5.91711200
H   10.74197500  25.22545200  5.79855000
H   13.52975100  24.94091100  5.82285800
H   13.36922300  21.19479100  5.83203500
H   12.07186300  27.93552200  8.72349700
H   15.83014900  11.79800900  9.38583900
H   18.15022600  15.25508900  9.01245300
H   16.63194800  16.64491800  5.84200200
H   15.82745200  25.13091700  9.38718100
H   18.52120000  20.77156300  8.87333400
H   15.80200700  20.28964200  5.79136800
P   9.59950200  18.31385300  11.07881400
O   5.89893200  18.18278800  13.15213900
O   4.07401100  15.88474900  12.56805800
O   2.89235200  17.97166900  11.44063000
O   8.40183900  17.90156000  12.10825300
O   3.13696100  20.77782300  11.83048600
O   10.80167100  17.52184600  11.47707900
O   9.83065800  19.87483500  11.48231400
O   9.07219600  18.31501600  9.70205800
N   5.30623200  20.20458100  12.11260800
N   4.71352200  22.30917400  11.23810500
N   6.38152500  23.64657400  10.35561300
C   4.89883500  16.63514300  11.70046500
C   4.29769700  18.01401200  11.41490700
C   6.19172300  16.98346100  12.41942000
C   4.85412200  18.88193900  12.55846000
C   7.35148500  17.17768800  11.46250400
C   6.61769000  20.50444500  12.02774300
C   4.32816000  21.12030400  11.73598600
C   7.01663500  21.68229700  11.51082700
C   6.00099100  22.55395500  11.03982200
H   5.06838000  16.08314300  10.76802900
H   4.63511500  18.35325000  10.42609100
H   6.42979800  16.22360700  13.16646000
H   4.06557400  19.05587600  13.29494400
H   7.06808500  17.74742400  10.57479500
H   7.73582100  16.22082900  11.09784900
H   3.15640300  16.09430100  12.34390700
H   2.60732500  18.89876000  11.51901200
H   7.30602500  19.74425500  12.36896600
H   8.06390400  21.91402300  11.39741800
H   7.25407200  23.59604500  9.84498700
H   5.70996500  24.18499400  9.82684300
H   10.04790400  20.26859000  10.61697600
160
Step=5
Si  0.82768500  16.90407600  8.02644100
Si  3.58366000  15.40870700  7.93287900
Si  3.61794200  12.32995600  7.78890500
O  -0.39303000  16.38443800  8.96782200
O   2.14700000  16.01900000  8.38100000
O   2.16848100  11.70224700  8.16562000
O   3.71000000  13.84500000  8.38400000
O   0.51652500  16.82842900  6.42929900
O   3.80656900  15.58320400  6.32226500
O   3.84543000  12.26438200  6.17410900
Si  0.78616000  20.04272500  8.15125800
Si  3.60920800  24.58325200  7.78409100
Si  3.58350000  21.51085800  7.93188300
O  -0.31899400  20.60653100  9.20490100
O   2.16754800  25.22432900  8.16167000
O   2.14700000  20.90100000  8.38100000
O   1.04500000  18.46000000  8.38400000
O   3.71000000  23.07500000  8.38400000
O   0.21620000  20.20563900  6.63922300
O   3.84162900  24.65584300  6.17122300
O   3.79767900  21.34100900  6.31824200
Si  6.22340600  10.74419400  7.89520300
Si  6.22819400  16.90107200  8.07684300
Si  8.85925900  15.38951300  8.09503900
Si  8.88079900  12.34962400  7.92664800
O   4.81100000  11.40400000  8.38100000
O   4.83260600  16.22810900  8.60013900
O   7.51009800  16.10074800  8.68163500
O   7.47600000  11.67100000  8.38100000
O   6.39462900  9.26428500  8.54218000
O   8.95651800  13.83759800  8.59061600
O   6.19400900  10.55779900  6.28078900
O   6.33365600  16.78896200  6.44792000
O   8.80415300  15.38116900  6.44688500
O   8.99652700  12.49465100  6.29805900
Si  6.22758800  20.00633000  8.07532600
Si  6.22419700  26.17063100  7.86096800
Si  8.88872100  24.56300200  7.94116500
Si  8.86386800  21.52334600  8.14835700
O   4.83327200  20.68245000  8.57115300
O   4.81100000  25.51600000  8.38100000
O   7.47600000  25.24900000  8.38100000
O   7.51558700  20.80495100  8.67842700
O   6.26264100  18.45688800  8.55206300
O   8.94752000  23.08302900  8.66259200
O   6.35351100  20.13376400  6.44721300
O   6.19817600  26.31315800  6.24675300
O   9.01288200  24.38656000  6.32201400
O   8.84234700  21.54426400  6.50694300
O   6.39850600  27.66040500  8.47574200
Si  11.54012600  10.90480000  7.70488300
Si  11.53415800  16.88491500  7.96174300
Si  14.20018200  15.39860200  7.87851700
Si  14.23550500  12.29497300  7.89908200
O   10.14000000  11.40400000  8.38100000
O   10.21014400  16.15203900  8.53920400
O   12.85459400  16.08712200  8.49836100
O   12.80500000  11.67100000  8.38100000
O   11.70079000  9.29985200  7.89445000
O   14.36800000  13.84500000  8.38400000
O   11.52652000  11.20959000  6.10125400
O   11.52563600  16.74782000  6.32478200
O   14.12535700  15.45006700  6.25107500
O   14.36734100  12.11466700  6.28781800
Si  11.52275200  20.02982200  7.97163600
Si  11.54139500  26.01284000  7.70181900
Si  14.23491700  24.62545000  7.89617600
Si  14.19823300  21.52336800  7.88889700
O   10.20324800  20.73701500  8.65645800
O   10.14000000  25.51600000  8.38100000
O   12.80500000  25.24900000  8.38100000
O   12.82781100  20.86663100  8.48028200
O   11.66078500  18.46341100  8.36421400
O   14.36800000  23.07500000  8.38400000
O   11.47008500  20.18988300  6.34584800
O   11.52554300  25.70383200  6.09999100
O   14.36237600  24.79219800  6.28369800
O   14.17756800  21.44509700  6.25212000
O   11.69856400  27.61699100  7.89091500
Si  16.94918700  16.86993500  8.05025200
O   15.47125000  11.46928300  8.55693500
O   15.46900000  16.28600000  8.38100000
O   18.07201200  16.21518900  9.02511100
O   17.33932800  16.54304600  6.50163000
Si  16.78456400  19.92323200  7.71897300
O   15.46900000  20.63400000  8.38100000
O   15.47171200  25.45203300  8.54817100
O   18.10998200  20.83068300  7.97968500
O   17.03200000  18.46000000  8.38400000
O   16.56269000  19.80582500  6.11240000
H  -0.49849600  15.43549700  9.08150100
H   1.69581400  12.08319500  8.91113800
H   0.32082200  15.96727700  6.04808700
H   3.09096600  15.38533700  5.71123000
H   3.19233200  12.64695800  5.58137300
H  -0.01110800  20.78433600  10.09909100
H   1.69012300  24.84556200  8.90556300
H  -0.00996500  21.09272300  6.34392700
H   3.18773100  24.27952700  5.57513600