
                                 *****************
                                 * O   R   C   A *
                                 *****************

                                            #,                                       
                                            ###                                      
                                            ####                                     
                                            #####                                    
                                            ######                                   
                                           ########,                                 
                                     ,,################,,,,,                         
                               ,,#################################,,                 
                          ,,##########################################,,             
                       ,#########################################, ''#####,          
                    ,#############################################,,   '####,        
                  ,##################################################,,,,####,       
                ,###########''''           ''''###############################       
              ,#####''   ,,,,##########,,,,          '''####'''          '####       
            ,##' ,,,,###########################,,,                        '##       
           ' ,,###''''                  '''############,,,                           
         ,,##''                                '''############,,,,        ,,,,,,###''
      ,#''                                            '''#######################'''  
     '                                                          ''''####''''         
             ,#######,   #######,   ,#######,      ##                                
            ,#'     '#,  ##    ##  ,#'     '#,    #''#        ,####,    ,#,          
            ##       ##  ##   ,#'  ##            #'  '#       #'       ,# #          
            ##       ##  #######   ##           ,######,      #####,      #          
            '#,     ,#'  ##    ##  '#,     ,#' ,#      #,     #,   #      #          
             '#######'   ##     ##  '#######'  #'      '#     '####' #    #          



                #########################################################
                #                        -***-                          #
                #          Department of theory and spectroscopy        #
                #                                                       #
                #                      Frank Neese                      #
                #                                                       #
                #     Directorship, Architecture, Infrastructure        #
                #                    SHARK, DRIVERS                     #
                #        Core code/Algorithms in most modules           #
                #                                                       #
                #        Max Planck Institute fuer Kohlenforschung      #
                #                Kaiser Wilhelm Platz 1                 #
                #                 D-45470 Muelheim/Ruhr                 #
                #                      Germany                          #
                #                                                       #
                #                  All rights reserved                  #
                #                        -***-                          #
                #########################################################


                         Program Version 6.1.0  -  RELEASE   -
                                (GIT: $679e74b$)
                          ($2025-06-10 18:02:51 +0200$)


 With contributions from (in alphabetic order):
[Max-Planck-Institut fuer Kohlenforschung]                               
  Daniel Aravena         : Magnetic Suceptibility                        
  Michael Atanasov       : Ab Initio Ligand Field Theory (pilot matlab implementation)
  Alexander A. Auer      : GIAO ZORA, VPT2 properties, NMR spectrum      
  Ute Becker             : All parallelization in ORCA, NUMFREQ, NUMCALC 
  Giovanni Bistoni       : ED, misc. LED, open-shell LED, HFLD           
  Dmytro Bykov           : pre 5.0 version of the SCF Hessian            
  Marcos Casanova-Páez   : Triplet and SCS-CIS(D). UHF-(DLPNO)-IP/EA/STEOM-CCSD. UHF-CVS-IP/STEOM-CCSD   
  Vijay G. Chilkuri      : MRCI spin determinant printing, contributions to CSF-ICE 
  Pauline Colinet        : FMM embedding                                 
  Dipayan Datta          : RHF DLPNO-CCSD density                        
  Achintya Kumar Dutta   : EOM-CC, STEOM-CC                              
  Nicolas Foglia         : Exact transition moments, OPA infrastructure, MCD improvements    
  Dmitry Ganyushin       : Spin-Orbit,Spin-Spin,Magnetic field MRCI      
  Miquel Garcia-Rates    : C-PCM and meta-GGA Hessian, CCSD/C-PCM, Gaussian charge scheme 
  Tiago L. C. Gouveia    : GS-ROHF, GS-ROCIS                             
  Yang Guo               : DLPNO-NEVPT2, F12-NEVPT2, CIM, IAO-localization        
  Andreas Hansen         : Spin unrestricted coupled pair/coupled cluster methods 
  Ingolf Harden          : AUTO-CI MPn and infrastructure                
  Benjamin Helmich-Paris : MC-RPA, TRAH-(SCF,CASSCF), AVAS, COSX integrals, SCF dyn. polar., MC-PDFT, srDFT 
  Lee Huntington         : MR-EOM, pCC                                   
  Robert Izsak           : Overlap fitted RIJCOSX, COSX-SCS-MP3, EOM     
  Riya Kayal             : Wick's Theorem for AUTO-CI, AUTO-CI UHF-CCSDT 
  Emily Kempfer          : AUTO-CI RHF CISDT and CCSDT, approximate NEVPT4
  Christian Kollmar      : KDIIS, OOCD, Brueckner-CCSD(T), CCSD density, CASPT2, CASPT2-K, improved NEVPT2 
  Axel Koslowski         : Symmetry handling                             
  Simone Kossmann        : meta-GGA functionals, TD-DFT gradient, OOMP2, (MP2 Hessian; deprecated post 5.0) 
  Lucas Lang             : DCDCAS, Hyperfine gauge corrections, ICE-SOC+SSC
  Marvin Lechner         : AUTO-CI (C++ implementation), FIC-MRCC        
  Spencer Leger          : CASSCF response                               
  Dagmar Lenk            : GEPOL surface, SMD, ORCA-2-JSON               
  Dimitrios Liakos       : Extrapolation schemes; Compound Job, Property file
  Dimitrios Manganas     : Further ROCIS development; embedding schemes. LFT, Crystal Embedding 
  Dimitrios Pantazis     : SARC Basis sets                               
  Anastasios Papadopoulos: AUTO-CI, single reference methods and gradients 
  Taras Petrenko         : pre 6.0 DFT Hessian and TD-DFT gradient,  ECA, NRVS 
  Petra Pikulova         : Analytic Raman intensities                    
  Peter Pinski           : DLPNO-MP2, DLPNO-MP2 Gradient                 
  Shashank Vittal Rao    : ES-AILFT, MagRelax                            
  Christoph Reimann      : Effective Core Potentials                     
  Marius Retegan         : Local ZFS, SOC                                
  Christoph Riplinger    : Optimizer, TS searches, QM/MM, DLPNO-CCSD(T), (RO)-DLPNO pert. Triples 
  Michael Roemelt        : Original ROCIS implementation, recursive CI coupling coefficients
  Masaaki Saitow         : Open-shell DLPNO-CCSD energy and density      
  Barbara Sandhoefer     : DKH picture change effects                    
  Yorick L. A. Schmerwitz: GMF and freeze-and-release deltaSCF, NEB S-IDPP initial path                    
  Kantharuban Sivalingam : CASSCF convergence/infrastructure, NEVPT2, NEVPT3, NEVPT4(SD), FIC-MRCI and CEPA variants
  Bernardo de Souza      : ESD, SOC TD-DFT                               
  Georgi L. Stoychev     : AutoAux, RI-MP2 NMR, DLPNO-MP2 response, X2C  
  Van Anh Tran           : RI-MP2 g-tensors                              
  Willem Van den Heuvel  : Paramagnetic NMR                              
  Zikuan Wang            : NOTCH, Electric field optimization            
  Frank Wennmohs         : Technical directorship and infrastructure     
  Hang Xu                : AUTO-CI-Response properties                   
                                                                         
[FACCTs GmbH]                                                            
  Markus Bursch, Nicolas Foglia, Miquel Garcia-Rates, Ingolf Harden, Hagen Neugebauer, Anastasios Papadopoulos, 
  Christoph Riplinger, Bernardo de Souza, Georgi L. Stoychev                                                    
                                                                 
  APM, various basis sets, CI-OPT, improved COSX, DLPNO-Multilevel,           
  DOCKER, DRACO, updates on ESD, Fragmentator, GOAT, IRC, LR-CPCM, L-BFGS, MBIS, meta-GGA TD-DFT gradient, ML-optimized integration grids, 
  MM, NACMEs, nearIR, NEB, NEB-TS, NL-DFT gradient (VV10), 2- and 3-layer-ONIOM, interface openCOSMO-RS, QMMM,   
  Crystal-QMMM, RESP, rigid body optimization, SF, symmetry and pop. for TD-DFT, various functionals, SOLVATOR                                   
                                                                         
[Other institutions]                                                     
  V. Asgeirsson          : NEB                                           
  Christoph Bannwarth    : sTDA-DFT, sTD-DFT, PBEh-3c, B97-3c, D3        
  Giovanni Bistoni       : ETS/NOCV, ADLD/ADEX, COVALED                  
  Martin Brehm           : Molecular dynamics                            
  Ronald Cardenas        : ETS/NOCV                                      
  Martina Colucci        : COVALED                                       
  Sebastian Ehlert       : rSCAN, r2SCAN, r2SCAN-3c, D4, dhf basis sets  
  Marvin Friede          : D4 for Fr, Ra, Ac-Lr                          
  Lars Goerigk           : TD-DFT with DH, B97 family of functionals     
  Stefan Grimme          : VdW corrections, initial TS optimization, DFT functionals, gCP, sTDA/sTD-DF 
  Waldemar Hujo          : DFT-NL                                        
  H. Jonsson             : NEB                                           
  Holger Kruse           : gCP                                           
  Marcel Mueller         : wB97X-3c, vDZP basis set                      
  Hagen Neugebauer       : wr2SCAN, Native XTB                           
  Gianluca Regni         : ADLD/ADEX                                     
  Tobias Risthaus        : pre 6.0 range-separated hybrid DFT and stability analysis
  Lukas Wittmann         : regularized MP2, r2SCAN double-hybrids, wr2SCAN        
                                                                         
We gratefully acknowledge several colleagues who have allowed us to      
interface, adapt or use parts of their codes:                            
  Ed Valeev, F. Pavosevic, A. Kumar             : LibInt (2-el integral package), F12 methods 
  Garnet Chan, S. Sharma, J. Yang, R. Olivares  : DMRG                   
  Ulf Ekstrom                                   : XCFun DFT Library      
  Mihaly Kallay                                 : mrcc  (arbitrary order and MRCC methods)
  Frank Weinhold                                : gennbo (NPA and NBO analysis)           
  Simon Mueller                                 : openCOSMO-RS                            
  Christopher J. Cramer and Donald G. Truhlar   : smd solvation model                     
  S Lehtola, MJT Oliveira, MAL Marques          : LibXC Library                           
  Liviu Ungur et al                             : ANISO software                          


 Your calculation uses the libint2 library for the computation of 2-el integrals
 For citations please refer to: http://libint.valeyev.net

 Your ORCA version has been built with support for libXC version: 7.0.0
 For citations please refer to: https://libxc.gitlab.io

 This ORCA versions uses:
   CBLAS   interface :  Fast vector & matrix operations
   LAPACKE interface :  Fast linear algebra routines
   SCALAPACK package :  Parallel linear algebra routines
   Shared memory     :  Shared parallel matrices
   BLAS/LAPACK       :  OpenBLAS 0.3.29  USE64BITINT DYNAMIC_ARCH NO_AFFINITY Haswell SINGLE_THREADED
        Core in use  :  Haswell
   Copyright (c) 2011-2014, The OpenBLAS Project


  ***********************************
  * Starting time: Tue Oct 28 13:56:05 2025
  * Host name:     DESKTOP-VDPDGSO
  * Process ID:    20188
  * Working dir.:  /mnt/d/seafile/test_orca/flower_ump/hpc/frame_6_ma3/esp_pbe0
  ***********************************

NOTE: MaxCore=2000 MB was set to SCF,MP2,MDCI,CIPSI,MRCI,RASCI and CIS
      => If you want to overwrite this, your respective input block should be placed after the MaxCore statement


***************************************
The coordinates will be read from file: surface.xyz
***************************************


Your calculation utilizes the atom-pairwise dispersion correction
with the Becke-Johnson damping scheme (D3BJ)


Warning: RI is on but no J-basis has been assigned. Assigning Def2/J (nothing to worry about!)
================================================================================

----- Orbital basis set information -----
Your calculation utilizes the basis: def2-TZVP
   F. Weigend and R. Ahlrichs, Phys. Chem. Chem. Phys. 7, 3297 (2005).

----- AuxJ basis set information -----
Your calculation utilizes the auxiliary basis: def2/J
   H-Rn: F. Weigend, Phys. Chem. Chem. Phys. 8, 1057 (2006).
   Fr-Lr: K. Eichkorn, F. Weigend, O. Treutler, R. Ahlrichs; Theor. Chem. Acc. 97, 119 (1997).

================================================================================
                                        WARNINGS
                       Please study these warnings very carefully!
================================================================================


================================================================================
                                       INPUT FILE
================================================================================
NAME = surface_esp.inp
|  1> ! SP PBE0 D3BJ def2-TZVP TightSCF
|  2> 
|  3> %pal nprocs 10 end
|  4> 
|  5> %maxcore 2000
|  6> 
|  7> * xyzfile 0 1 surface.xyz
|  8> 
|  9>                          ****END OF INPUT****
================================================================================

                       ****************************
                       * Single Point Calculation *
                       ****************************

---------------------------------
CARTESIAN COORDINATES (ANGSTROEM)
---------------------------------
  Si     0.829864   16.904952    8.019302
  Si     3.582878   15.407097    7.925043
  Si     3.611052   12.326855    7.799518
  O     -0.398453   16.381819    8.948678
  O      2.147000   16.019000    8.381000
  O      2.170339   11.697589    8.205786
  O      3.710000   13.845000    8.384000
  O      0.527835   16.835290    6.420609
  O      3.800849   15.575553    6.313140
  O      3.821450   12.254551    6.182310
  Si     0.787638   20.041251    8.145141
  Si     3.611056   24.592091    7.801300
  Si     3.578518   21.513561    7.927507
  O     -0.341319   20.599625    9.174659
  O      2.171572   25.221877    8.213237
  O      2.147000   20.901000    8.381000
  O      1.045000   18.460000    8.384000
  O      3.710000   23.075000    8.384000
  O      0.237880   20.195506    6.623887
  O      3.819211   24.670819    6.183681
  O      3.778950   21.351639    6.310488
  Si     6.222452   10.748340    7.889395
  Si     6.228475   16.899984    8.056229
  Si     8.871595   15.399596    8.119843
  Si     8.882728   12.355354    7.935636
  O      4.811000   11.404000    8.381000
  O      4.834999   16.231442    8.572032
  O      7.523941   16.122287    8.681849
  O      7.476000   11.671000    8.381000
  O      6.393861    9.265908    8.529772
  O      8.964659   13.847900    8.608071
  O      6.191332   10.577712    6.273366
  O      6.355118   16.749691    6.432848
  O      8.856555   15.414325    6.476163
  O      8.999153   12.512815    6.309396
  Si     6.225422   20.011451    8.024218
  Si     6.221901   26.175418    7.896265
  Si     8.881515   24.573610    7.920845
  Si     8.862443   21.524180    8.069266
  O      4.838509   20.682365    8.544791
  O      4.811000   25.516000    8.381000
  O      7.476000   25.249000    8.381000
  O      7.524873   20.791202    8.634166
  O      6.287005   18.460045    8.501675
  O      8.967371   23.071154    8.567745
  O      6.335637   20.139103    6.398439
  O      6.190414   26.359513    6.281497
  O      8.997512   24.442459    6.292322
  O      8.842112   21.524278    6.427050
  O      6.394182   27.652440    8.548791
  Si    11.540548   10.902830    7.706462
  Si    11.532924   16.889655    7.991390
  Si    14.190198   15.400689    7.890931
  Si    14.236223   12.294374    7.901924
  O     10.140000   11.404000    8.381000
  O     10.190396   16.210039    8.624518
  O     12.851140   16.101392    8.535353
  O     12.805000   11.671000    8.381000
  O     11.700516    9.299112    7.903160
  O     14.368000   13.845000    8.384000
  O     11.524256   11.201691    6.102032
  O     11.504462   16.738878    6.363510
  O     14.062329   15.435057    6.269142
  O     14.372822   12.112345    6.291413
  Si    11.531732   20.031664    7.970538
  Si    11.541040   26.025656    7.715453
  Si    14.233134   24.626254    7.897125
  Si    14.184030   21.521941    7.906290
  O     10.177893   20.709207    8.571086
  O     10.140000   25.516000    8.381000
  O     12.805000   25.249000    8.381000
  O     12.834267   20.837826    8.530617
  O     11.616258   18.464432    8.405913
  O     14.368000   23.075000    8.384000
  O     11.542668   20.175502    6.341487
  O     11.529270   25.744559    6.107690
  O     14.358953   24.789370    6.284326
  O     14.110932   21.432881    6.273310
  O     11.701656   27.626464    7.931725
  Si    16.921308   16.889060    7.963593
  O     15.468835   11.469976    8.566510
  O     15.469000   16.286000    8.381000
  O     18.085745   16.110378    8.784659
  O     17.193743   16.730395    6.364949
  Si    16.726438   19.884975    7.660691
  O     15.469000   20.634000    8.381000
  O     15.472098   25.449704    8.548494
  O     18.054687   20.819220    7.716454
  O     17.032000   18.460000    8.384000
  O     16.381489   19.591410    6.092880
  H     -0.481214   15.434272    9.089401
  H      1.677399   12.128482    8.909777
  H      0.339671   15.974572    6.034644
  H      3.094639   15.347481    5.701754
  H      3.159899   12.630485    5.594738
  H     -0.059645   20.829012   10.064897
  H      1.676826   24.781065    8.909819
  H      0.025145   21.082128    6.317568
  H      3.159348   24.291158    5.596665
  H      3.061920   21.579800    5.711911
  H      6.916417    9.186060    9.332471
  H      5.497687   11.088760    5.833106
  H      5.559560   16.408033    5.993726
  H      8.068181   15.840523    6.095065
  H      8.872519   13.413818    5.975576
  H      5.537783   20.486555    5.968203
  H      5.498664   25.849260    5.837529
  H      8.859964   23.549826    5.941630
  H      8.063063   21.087251    6.041775
  H      6.919464   27.725204    9.350426
  H     12.103499    8.984263    8.717302
  H     10.743971   11.695043    5.802235
  H     10.691009   16.368881    5.990977
  H     13.238039   15.825778    5.941823
  H     13.537717   11.978943    5.823363
  H     10.732904   20.520624    5.940680
  H     10.747057   25.259920    5.798827
  H     13.524023   24.952227    5.824797
  H     13.265112   21.104250    5.928664
  H     12.094400   27.931548    8.754619
  H     15.845767   11.817195    9.379448
  H     17.899398   15.213325    9.074787
  H     16.833533   17.440575    5.818290
  H     15.827228   25.131456    9.382997
  H     18.444513   21.001543    8.576484
  H     15.631868   20.097372    5.746195

----------------------------
CARTESIAN COORDINATES (A.U.)
----------------------------
  NO LB      ZA    FRAG     MASS         X           Y           Z
   0 Si   14.0000    0    28.086    1.568215   31.945730   15.154284
   1 Si   14.0000    0    28.086    6.770659   29.115193   14.976161
   2 Si   14.0000    0    28.086    6.823900   23.294381   14.738952
   3 O     8.0000    0    15.999   -0.752967   30.957152   16.910550
   4 O     8.0000    0    15.999    4.057242   30.271523   15.837795
   5 O     8.0000    0    15.999    4.101346   22.105239   15.506688
   6 O     8.0000    0    15.999    7.010884   26.163258   15.843464
   7 O     8.0000    0    15.999    0.997463   31.814088   12.133192
   8 O     8.0000    0    15.999    7.182563   29.433529   11.930106
   9 O     8.0000    0    15.999    7.221494   23.157744   11.682873
  10 Si   14.0000    0    28.086    1.488419   37.872475   15.392087
  11 Si   14.0000    0    28.086    6.823907   46.472317   14.742321
  12 Si   14.0000    0    28.086    6.762419   40.654738   14.980818
  13 O     8.0000    0    15.999   -0.644999   38.927649   17.337593
  14 O     8.0000    0    15.999    4.103676   47.662441   15.520768
  15 O     8.0000    0    15.999    4.057242   39.497166   15.837795
  16 O     8.0000    0    15.999    1.974764   34.884344   15.843464
  17 O     8.0000    0    15.999    7.010884   43.605430   15.843464
  18 O     8.0000    0    15.999    0.449527   38.163976   12.517332
  19 O     8.0000    0    15.999    7.217263   46.621092   11.685463
  20 O     8.0000    0    15.999    7.141181   40.348750   11.925095
  21 Si   14.0000    0    28.086   11.758730   20.311419   14.908796
  22 Si   14.0000    0    28.086   11.770113   31.936341   15.224067
  23 Si   14.0000    0    28.086   16.764885   29.101020   15.344279
  24 Si   14.0000    0    28.086   16.785923   23.348235   14.996179
  25 O     8.0000    0    15.999    9.091472   21.550437   15.837795
  26 O     8.0000    0    15.999    9.136824   30.672980   16.198793
  27 O     8.0000    0    15.999   14.218188   30.466706   16.406317
  28 O     8.0000    0    15.999   14.127593   22.054994   15.837795
  29 O     8.0000    0    15.999   12.082646   17.510029   16.118934
  30 O     8.0000    0    15.999   16.940750   26.168739   16.266897
  31 O     8.0000    0    15.999   11.699921   19.988979   11.854944
  32 O     8.0000    0    15.999   12.009432   31.652329   12.156322
  33 O     8.0000    0    15.999   16.736464   29.128853   12.238175
  34 O     8.0000    0    15.999   17.005934   23.645793   11.923030
  35 Si   14.0000    0    28.086   11.764342   37.816162   15.163574
  36 Si   14.0000    0    28.086   11.757689   49.464371   14.921778
  37 Si   14.0000    0    28.086   16.783631   46.437392   14.968227
  38 Si   14.0000    0    28.086   16.747590   40.674806   15.248703
  39 O     8.0000    0    15.999    9.143457   39.084006   16.147316
  40 O     8.0000    0    15.999    9.091472   48.218252   15.837795
  41 O     8.0000    0    15.999   14.127593   47.713695   15.837795
  42 O     8.0000    0    15.999   14.219949   39.289677   16.316209
  43 O     8.0000    0    15.999   11.880717   34.884429   16.065838
  44 O     8.0000    0    15.999   16.945875   43.598163   16.190691
  45 O     8.0000    0    15.999   11.972619   38.057389   12.091297
  46 O     8.0000    0    15.999   11.698187   49.812260   11.870309
  47 O     8.0000    0    15.999   17.002834   46.189553   11.890765
  48 O     8.0000    0    15.999   16.709169   40.674992   12.145364
  49 O     8.0000    0    15.999   12.083252   52.255538   16.154874
  50 Si   14.0000    0    28.086   21.808475   20.603364   14.563102
  51 Si   14.0000    0    28.086   21.794068   31.916822   15.101538
  52 Si   14.0000    0    28.086   26.815588   29.103085   14.911699
  53 Si   14.0000    0    28.086   26.902564   23.232999   14.932473
  54 O     8.0000    0    15.999   19.161823   21.550437   15.837795
  55 O     8.0000    0    15.999   19.257058   30.632534   16.297977
  56 O     8.0000    0    15.999   24.285136   30.427222   16.129481
  57 O     8.0000    0    15.999   24.197943   22.054994   15.837795
  58 O     8.0000    0    15.999   22.110771   17.572774   14.934808
  59 O     8.0000    0    15.999   27.151585   26.163258   15.843464
  60 O     8.0000    0    15.999   21.777688   21.168128   11.531169
  61 O     8.0000    0    15.999   21.740282   31.631896   12.025290
  62 O     8.0000    0    15.999   26.573950   29.168030   11.846961
  63 O     8.0000    0    15.999   27.160698   22.889015   11.889047
  64 Si   14.0000    0    28.086   21.791815   37.854359   15.062133
  65 Si   14.0000    0    28.086   21.809404   49.181363   14.580094
  66 Si   14.0000    0    28.086   26.896725   46.536877   14.923404
  67 Si   14.0000    0    28.086   26.803933   40.670575   14.940723
  68 O     8.0000    0    15.999   19.233431   39.134730   16.197005
  69 O     8.0000    0    15.999   19.161823   48.218252   15.837795
  70 O     8.0000    0    15.999   24.197943   47.713695   15.837795
  71 O     8.0000    0    15.999   24.253249   39.377785   16.120529
  72 O     8.0000    0    15.999   21.951547   34.892719   15.884874
  73 O     8.0000    0    15.999   27.151585   43.605430   15.843464
  74 O     8.0000    0    15.999   21.812481   38.126173   11.983674
  75 O     8.0000    0    15.999   21.787163   48.650165   11.541861
  76 O     8.0000    0    15.999   27.134489   46.845120   11.875654
  77 O     8.0000    0    15.999   26.665798   40.502276   11.854837
  78 O     8.0000    0    15.999   22.112924   52.206450   14.988789
  79 Si   14.0000    0    28.086   31.976638   31.915698   15.049011
  80 O     8.0000    0    15.999   29.231862   21.675113   16.188358
  81 O     8.0000    0    15.999   29.232174   30.776080   15.837795
  82 O     8.0000    0    15.999   34.177104   30.444203   16.600600
  83 O     8.0000    0    15.999   32.491465   31.615865   12.028011
  84 Si   14.0000    0    28.086   31.608388   37.577157   14.476608
  85 O     8.0000    0    15.999   29.232174   38.992609   15.837795
  86 O     8.0000    0    15.999   29.238027   48.092970   16.154313
  87 O     8.0000    0    15.999   34.118413   39.342624   14.581985
  88 O     8.0000    0    15.999   32.185815   34.884344   15.843464
  89 O     8.0000    0    15.999   30.956528   37.022399   11.513875
  90 H     1.0000    0     1.008   -0.909363   29.166547   17.176478
  91 H     1.0000    0     1.008    3.169824   22.919509   16.837039
  92 H     1.0000    0     1.008    0.641885   30.187566   11.403824
  93 H     1.0000    0     1.008    5.848020   29.002536   10.774754
  94 H     1.0000    0     1.008    5.971344   23.868159   10.572522
  95 H     1.0000    0     1.008   -0.112713   39.361128   19.019899
  96 H     1.0000    0     1.008    3.168742   46.829426   16.837119
  97 H     1.0000    0     1.008    0.047517   39.839447   11.938474
  98 H     1.0000    0     1.008    5.970303   45.903637   10.576165
  99 H     1.0000    0     1.008    5.786191   40.779913   10.793948
 100 H     1.0000    0     1.008   13.070135   17.359138   17.635813
 101 H     1.0000    0     1.008   10.389122   20.954720   11.022974
 102 H     1.0000    0     1.008   10.506045   31.006689   11.326501
 103 H     1.0000    0     1.008   15.246652   29.934250   11.518003
 104 H     1.0000    0     1.008   16.766632   25.348443   11.292201
 105 H     1.0000    0     1.008   10.464894   38.713977   11.278270
 106 H     1.0000    0     1.008   10.390970   48.848023   11.031332
 107 H     1.0000    0     1.008   16.742905   44.502722   11.228054
 108 H     1.0000    0     1.008   15.236981   39.849130   11.417300
 109 H     1.0000    0     1.008   13.075892   52.393043   17.669744
 110 H     1.0000    0     1.008   22.872298   16.977797   16.473313
 111 H     1.0000    0     1.008   20.303163   22.100429   10.964635
 112 H     1.0000    0     1.008   20.203080   30.932702   11.321307
 113 H     1.0000    0     1.008   25.016268   29.906386   11.228418
 114 H     1.0000    0     1.008   25.582578   22.636922   11.004561
 115 H     1.0000    0     1.008   20.282250   38.778359   11.226258
 116 H     1.0000    0     1.008   20.308994   47.734332   10.958194
 117 H     1.0000    0     1.008   25.556699   47.152875   11.007271
 118 H     1.0000    0     1.008   25.067428   39.881252   11.203552
 119 H     1.0000    0     1.008   22.855104   52.782976   16.543832
 120 H     1.0000    0     1.008   29.944160   22.331262   17.724589
 121 H     1.0000    0     1.008   33.824960   28.749018   17.148863
 122 H     1.0000    0     1.008   31.810767   32.957911   10.994975
 123 H     1.0000    0     1.008   29.909126   47.491569   17.731294
 124 H     1.0000    0     1.008   34.855078   39.687165   16.207205
 125 H     1.0000    0     1.008   29.539950   37.978529   10.858735

--------------------------------
INTERNAL COORDINATES (ANGSTROEM)
--------------------------------
 Si     0   0   0     0.000000000000     0.00000000     0.00000000
 Si     1   0   0     3.135529460337     0.00000000     0.00000000
 Si     2   1   0     3.082926529082   119.11314950     0.00000000
 O      1   2   3     1.626705414803   121.77114821    42.53311785
 O      2   1   3     1.626059422451    15.52563422   288.27032041
 O      3   2   1     1.623787442834   111.64761714   344.07935541
 O      3   2   1     1.629777015215    19.13650504   258.48123715
 O      1   2   3     1.628463393094    96.48226876   279.00991754
 O      2   1   3     1.635273556892    95.59255641    97.20058678
 O      3   2   1     1.632438541803    94.92020885    98.08180410
 Si     1   2   3     3.139106050589   119.35982098   180.04465968
 Si    11   1   2     5.366569435161   146.88692141     9.62045643
 Si    12  11   1     3.081287917973    31.19393021   351.63288150
 O     11   1   2     1.626723829931   112.18818954   221.20343064
 O     12  11   1     1.624326968391    81.15833313   184.40922890
 O     13  12  11     1.621767432490   113.46246960   346.52009031
 O      1   2   3     1.611664420450   110.51929704   168.38735987
 O     12  11   1     1.628156600986    38.63772289   320.49103352
 O     11   1   2     1.624883071616    93.54706844   109.05059995
 O     12  11   1     1.632856437077    99.87083003    75.27036801
 O     13  12  11     1.637419607648    93.27098103   100.31883078
 Si     3   2   1     3.052736105106   121.55054183   184.08964126
 Si     2   1   3     3.040576533655   121.87761908   182.27519088
 Si    23   2   1     3.039948930645   121.00337359   176.51552374
 Si    24  23   2     3.049830824401   119.64089435     2.50551769
 O      3   2   1     1.621622098344   124.10841358   208.12698323
 O     23   2   1     1.629348561884    21.26107973    76.43038081
 O     24  23   2     1.629203325326    21.42094867   271.38135153
 O     25  24  23     1.626521431120   113.59573958   337.63095234
 O     22   3   2     1.623905164347   125.02529700   148.76295962
 O     24  23   2     1.629352184226   121.73323032   337.99220821
 O     22   3   2     1.625309707354    90.49455376   260.49740554
 O     23   2   1     1.635234275340    88.82117307   259.64451651
 O     24  23   2     1.643814280464    88.09162137    88.02322999
 O     25  24  23     1.637988696441    87.95242381    90.74200327
 Si    13  12  11     3.044960642311   119.01180755   183.99624670
 Si    12  11   1     3.054906217521   152.51772618   339.09074982
 Si    37  12  11     3.104825167047   117.70672214    11.88395096
 Si    36  13  12     3.040437260344   120.59498399     1.58557949
 O     36  13  12     1.626237407921    20.82058175   101.74045842
 O     12  11   1     1.621580895342   148.16426081   298.60525592
 O     38  37  12     1.625843553152    17.71250030   285.46339516
 O     39  36  13     1.626487825212    21.20029445    88.71143661
 O     23   2   1     1.623465046692   120.99878385    13.55312738
 O     39  36  13     1.628686575921   122.20745427    22.24837655
 O     36  13  12     1.634503235628    89.34095985   277.48428210
 O     37  12  11     1.625532776653    90.64532869   107.59666306
 O     38  37  12     1.637907773900    95.39974833    86.38102106
 O     39  36  13     1.642342512205    88.53752079   271.96854180
 O     37  12  11     1.623904401524   125.06956529   219.45349837
 Si    25  24  23     3.037491533207   119.01727012   173.61256396
 Si    24  23   2     3.052777136046   121.07691172   174.29498079
 Si    52  24  23     3.047657521522   121.53544710   183.59369302
 Si    51  25  24     3.039944688414   123.51560724     5.75826578
 O     51  25  24     1.633311856943    21.84424693   110.86516197
 O     24  23   2     1.628112844544   117.71563991   197.66545336
 O     52  24  23     1.629401175559   117.07160989   159.47976567
 O     51  25  24     1.626014942231   115.03840136    28.07423348
 O     51  25  24     1.623635933798   123.32596002   167.18217024
 O     54  51  25     1.629172791295   121.76488308    10.32705630
 O     51  25  24     1.632108539113    88.73194414   277.40688528
 O     52  24  23     1.635095766336    88.95186366   268.72956285
 O     53  52  24     1.627185718458    87.36443826    90.52425851
 O     54  51  25     1.626511872140    87.68332455   254.39974226
 Si    39  36  13     3.059812748166   120.89419359   184.27609851
 Si    38  37  12     3.037053873464   120.19383962   173.47354140
 Si    66  38  37     3.039523273278   123.46534292   176.08995293
 Si    65  39  36     3.042982454634   121.47741503   177.61629267
 O     39  36  13     1.626780283950   117.17111464   161.78620574
 O     66  38  37     1.632670732153    21.83308214    71.13225312
 O     66  38  37     1.625958954808   115.13005269   153.77748128
 O     65  39  36     1.631007073229   116.39167722   201.45415264
 O     65  39  36     1.628776740179   120.39752960   338.69471849
 O     67  66  38     1.631449268905   121.92609120   348.58053666
 O     65  39  36     1.635424663221    89.71770182    92.49330104
 O     66  38  37     1.632194482652    88.73716738   264.29101339
 O     67  66  38     1.625902521087    87.88311983   104.10656429
 O     68  65  39     1.637040187179    87.44936697   267.10662390
 O     66  38  37     1.623316232805   123.30628028    14.57628075
 Si    53  52  24     3.111187444021   122.06605735   184.43557329
 O     54  51  25     1.625003893673   117.81997627   146.90822191
 O     80  53  52     1.626993320966    17.27054861    66.90215394
 O     80  53  52     1.623701728367   114.32583189   143.93785512
 O     80  53  52     1.629434753611    94.43186892   257.37512925
 Si    80  53  52     3.017487612479   114.57840179   349.97522960
 O     85  80  53     1.631267621304   117.47361499    37.67757857
 O     67  66  38     1.624001725459   117.78993014   211.93901304
 O     85  80  53     1.624859103926   120.97226344   178.34213737
 O     85  80  53     1.626990436141    22.13038500   114.40492549
 O     85  80  53     1.631931861713    86.07137917   287.01938098
 H      4   1   2     0.961508050068   117.74468382   327.68883568
 H      6   3   2     0.961386039265   117.67469810   322.56936348
 H      8   1   2     0.961878946063   117.93609227    68.57453438
 H      9   2   1     0.961530927905   120.29324280   310.80739257
 H     10   3   2     0.961362453869   119.96514022   298.73383073
 H     14  11   1     0.961500249238   117.68119138    96.73027949
 H     15  12  11     0.961413580817   117.51734867    43.56757104
 H     19  11   1     0.961864958873   117.41867024   175.05532986
 H     20  12  11     0.961326136701   119.89342610    29.64174347
 H     21  13  12     0.961501180301   120.00250760   289.12313516
 H     30  22   3     0.961127049962   117.55306824   248.40993621
 H     32  22   3     0.967544637922   114.24921176     7.78621412
 H     33  23   2     0.970809663113   114.70378793     9.14708058
 H     34  24  23     0.973865880836   113.74214071   358.73141251
 H     35  25  24     0.969164056347   114.96429622   350.12184430
 H     46  36  13     0.970770679969   114.41585547   351.42015167
 H     47  37  12     0.967461783179   114.20356111   352.07035542
 H     48  38  37     0.968863962452   115.06241544   249.82859488
 H     49  39  36     0.972802924282   113.94769545     0.40301237
 H     50  37  12     0.961163071547   117.51425315   111.56436910
 H     59  51  25     0.961432301548   117.86208151   254.07307123
 H     61  51  25     0.970627970950   113.87412318     0.03545744
 H     62  52  24     0.968185517684   115.65430555     6.83380199
 H     63  53  52     0.969151174519   114.32864216   356.43452407
 H     64  54  51     0.966574715084   114.98355098    21.37713652
 H     75  65  39     0.967198190423   116.01270839   351.53320759
 H     76  66  38     0.970632766151   113.90653739     0.30575524
 H     77  67  66     0.966849113634   114.93103624   340.69391386
 H     78  68  65     0.970665543495   114.29963659     8.91403267
 H     79  66  38     0.961498027796   117.86174862   105.29444224
 H     81  54  51     0.960992819541   117.39900024   243.29820515
 H     83  80  53     0.961043244051   117.46729076     8.46162578
 H     84  80  53     0.965889699229   114.91807122    88.64362288
 H     87  67  66     0.961141595277   117.53146552   113.76102511
 H     88  85  80     0.961694809080   118.10274885   282.99973091
 H     90  85  80     0.968566184882   114.42459080   134.16562256

---------------------------
INTERNAL COORDINATES (A.U.)
---------------------------
 Si     0   0   0     0.000000000000     0.00000000     0.00000000
 Si     1   0   0     5.925291964878     0.00000000     0.00000000
 Si     2   1   0     5.825886830966   119.11314950     0.00000000
 O      1   2   3     3.074027734545   121.77114821    42.53311785
 O      2   1   3     3.072806985914    15.52563422   288.27032041
 O      3   2   1     3.068513566657   111.64761714   344.07935541
 O      3   2   1     3.079832218115    19.13650504   258.48123715
 O      1   2   3     3.077349832063    96.48226876   279.00991754
 O      2   1   3     3.090219176568    95.59255641    97.20058678
 O      3   2   1     3.084861774465    94.92020885    98.08180410
 Si     1   2   3     5.932050740948   119.35982098   180.04465968
 Si    11   1   2    10.141346511127   146.88692141     9.62045643
 Si    12  11   1     5.822790304730    31.19393021   351.63288150
 O     11   1   2     3.074062534093   112.18818954   221.20343064
 O     12  11   1     3.069533122202    81.15833313   184.40922890
 O     13  12  11     3.064696300318   113.46246960   346.52009031
 O      1   2   3     3.045604374436   110.51929704   168.38735987
 O     12  11   1     3.076770078999    38.63772289   320.49103352
 O     11   1   2     3.070584004999    93.54706844   109.05059995
 O     12  11   1     3.085651482086    99.87083003    75.27036801
 O     13  12  11     3.094274624767    93.27098103   100.31883078
 Si     3   2   1     5.768835197783   121.55054183   184.08964126
 Si     2   1   3     5.745856937836   121.87761908   182.27519088
 Si    23   2   1     5.744670940026   121.00337359   176.51552374
 Si    24  23   2     5.763345012909   119.64089435     2.50551769
 O      3   2   1     3.064421658585   124.10841358   208.12698323
 O     23   2   1     3.079022558660    21.26107973    76.43038081
 O     24  23   2     3.078748101340    21.42094867   271.38135153
 O     25  24  23     3.073680055771   113.59573958   337.63095234
 O     22   3   2     3.068736028076   125.02529700   148.76295962
 O     24  23   2     3.079029403894   121.73323032   337.99220821
 O     22   3   2     3.071390229702    90.49455376   260.49740554
 O     23   2   1     3.090144945194    88.82117307   259.64451651
 O     24  23   2     3.106358805106    88.09162137    88.02322999
 O     25  24  23     3.095350046732    87.95242381    90.74200327
 Si    13  12  11     5.754141702537   119.01180755   183.99624670
 Si    12  11   1     5.772936115928   152.51772618   339.09074982
 Si    37  12  11     5.867269259425   117.70672214    11.88395096
 Si    36  13  12     5.745593749420   120.59498399     1.58557949
 O     36  13  12     3.073143329709    20.82058175   101.74045842
 O     12  11   1     3.064343796195   148.16426081   298.60525592
 O     38  37  12     3.072399052059    17.71250030   285.46339516
 O     39  36  13     3.073616549808    21.20029445    88.71143661
 O     23   2   1     3.067904326241   120.99878385    13.55312738
 O     39  36  13     3.077771586484   122.20745427    22.24837655
 O     36  13  12     3.088763480344    89.34095985   277.48428210
 O     37  12  11     3.071811769587    90.64532869   107.59666306
 O     38  37  12     3.095197125291    95.39974833    86.38102106
 O     39  36  13     3.103577566164    88.53752079   271.96854180
 O     37  12  11     3.068734586550   125.06956529   219.45349837
 Si    25  24  23     5.740027131865   119.01727012   173.61256396
 Si    24  23   2     5.768912735024   121.07691172   174.29498079
 Si    52  24  23     5.759238065661   121.53544710   183.59369302
 Si    51  25  24     5.744662923371   123.51560724     5.75826578
 O     51  25  24     3.086512100909    21.84424693   110.86516197
 O     24  23   2     3.076687391307   117.71563991   197.66545336
 O     52  24  23     3.079121984096   117.07160989   159.47976567
 O     51  25  24     3.072722930481   115.03840136    28.07423348
 O     51  25  24     3.068227256071   123.32596002   167.18217024
 O     54  51  25     3.078690400384   121.76488308    10.32705630
 O     51  25  24     3.084238159759    88.73194414   277.40688528
 O     52  24  23     3.089883201109    88.95186366   268.72956285
 O     53  52  24     3.074935376913    87.36443826    90.52425851
 O     54  51  25     3.073661991916    87.68332455   254.39974226
 Si    39  36  13     5.782208115115   120.89419359   184.27609851
 Si    38  37  12     5.739200074812   120.19383962   173.47354140
 Si    66  38  37     5.743866564176   123.46534292   176.08995293
 Si    65  39  36     5.750403469585   121.47741503   177.61629267
 O     39  36  13     3.074169216728   117.17111464   161.78620574
 O     66  38  37     3.085300550638    21.83308214    71.13225312
 O     66  38  37     3.072617129583   115.13005269   153.77748128
 O     65  39  36     3.082156690891   116.39167722   201.45415264
 O     65  39  36     3.077941972239   120.39752960   338.69471849
 O     67  66  38     3.082992319617   121.92609120   348.58053666
 O     65  39  36     3.090504726148    89.71770182    92.49330104
 O     66  38  37     3.084400569509    88.73716738   264.29101339
 O     67  66  38     3.072510485306    87.88311983   104.10656429
 O     68  65  39     3.093557623992    87.44936697   267.10662390
 O     66  38  37     3.067623108750   123.30628028    14.57628075
 Si    53  52  24     5.879292220495   122.06605735   184.43557329
 O     54  51  25     3.070812325598   117.81997627   146.90822191
 O     80  53  52     3.074571798345    17.27054861    66.90215394
 O     80  53  52     3.068351589789   114.32583189   143.93785512
 O     80  53  52     3.079185437418    94.43186892   257.37512925
 Si    80  53  52     5.702225200085   114.57840179   349.97522960
 O     85  80  53     3.082649055398   117.47361499    37.67757857
 O     67  66  38     3.068918502134   117.78993014   211.93901304
 O     85  80  53     3.070538712628   120.97226344   178.34213737
 O     85  80  53     3.074566346816    22.13038500   114.40492549
 O     85  80  53     3.083904287857    86.07137917   287.01938098
 H      4   1   2     1.816986890190   117.74468382   327.68883568
 H      6   3   2     1.816756323187   117.67469810   322.56936348
 H      8   1   2     1.817687782043   117.93609227    68.57453438
 H      9   2   1     1.817030123035   120.29324280   310.80739257
 H     10   3   2     1.816711753247   119.96514022   298.73383073
 H     14  11   1     1.816972148757   117.68119138    96.73027949
 H     15  12  11     1.816808369177   117.51734867    43.56757104
 H     19  11   1     1.817661350085   117.41867024   175.05532986
 H     20  12  11     1.816643123745   119.89342610    29.64174347
 H     21  13  12     1.816973908211   120.00250760   289.12313516
 H     30  22   3     1.816266904331   117.55306824   248.40993621
 H     32  22   3     1.828394388017   114.24921176     7.78621412
 H     33  23   2     1.834564391449   114.70378793     9.14708058
 H     34  24  23     1.840339805951   113.74214071   358.73141251
 H     35  25  24     1.831454645337   114.96429622   350.12184430
 H     46  36  13     1.834490723982   114.41585547   351.42015167
 H     47  37  12     1.828237815243   114.20356111   352.07035542
 H     48  38  37     1.830887550061   115.06241544   249.82859488
 H     49  39  36     1.838331109171   113.94769545     0.40301237
 H     50  37  12     1.816334975263   117.51425315   111.56436910
 H     59  51  25     1.816843746231   117.86208151   254.07307123
 H     61  51  25     1.834221043019   113.87412318     0.03545744
 H     62  52  24     1.829605475251   115.65430555     6.83380199
 H     63  53  52     1.831430302209   114.32864216   356.43452407
 H     64  54  51     1.826561499481   114.98355098    21.37713652
 H     75  65  39     1.827739697124   116.01270839   351.53320759
 H     76  66  38     1.834230104637   113.90653739     0.30575524
 H     77  67  66     1.827080037592   114.93103624   340.69391386
 H     78  68  65     1.834292044840   114.29963659     8.91403267
 H     79  66  38     1.816967950841   117.86174862   105.29444224
 H     81  54  51     1.816013245597   117.39900024   243.29820515
 H     83  80  53     1.816108534112   117.46729076     8.46162578
 H     84  80  53     1.825267007119   114.91807122    88.64362288
 H     87  67  66     1.816294390993   117.53146552   113.76102511
 H     88  85  80     1.817339813575   118.10274885   282.99973091
 H     90  85  80     1.830324832004   114.42459080   134.16562256

---------------------
BASIS SET INFORMATION
---------------------
There are 3 groups of distinct atoms

 Group   1 Type Si  : 14s9p3d1f contracted to 5s5p2d1f pattern {73211/51111/21/1}
 Group   2 Type O   : 11s6p2d1f contracted to 5s3p2d1f pattern {62111/411/11/1}
 Group   3 Type H   : 5s1p contracted to 3s1p pattern {311/1}

Atom   0Si   basis set group =>   1
Atom   1Si   basis set group =>   1
Atom   2Si   basis set group =>   1
Atom   3O    basis set group =>   2
Atom   4O    basis set group =>   2
Atom   5O    basis set group =>   2
Atom   6O    basis set group =>   2
Atom   7O    basis set group =>   2
Atom   8O    basis set group =>   2
Atom   9O    basis set group =>   2
Atom  10Si   basis set group =>   1
Atom  11Si   basis set group =>   1
Atom  12Si   basis set group =>   1
Atom  13O    basis set group =>   2
Atom  14O    basis set group =>   2
Atom  15O    basis set group =>   2
Atom  16O    basis set group =>   2
Atom  17O    basis set group =>   2
Atom  18O    basis set group =>   2
Atom  19O    basis set group =>   2
Atom  20O    basis set group =>   2
Atom  21Si   basis set group =>   1
Atom  22Si   basis set group =>   1
Atom  23Si   basis set group =>   1
Atom  24Si   basis set group =>   1
Atom  25O    basis set group =>   2
Atom  26O    basis set group =>   2
Atom  27O    basis set group =>   2
Atom  28O    basis set group =>   2
Atom  29O    basis set group =>   2
Atom  30O    basis set group =>   2
Atom  31O    basis set group =>   2
Atom  32O    basis set group =>   2
Atom  33O    basis set group =>   2
Atom  34O    basis set group =>   2
Atom  35Si   basis set group =>   1
Atom  36Si   basis set group =>   1
Atom  37Si   basis set group =>   1
Atom  38Si   basis set group =>   1
Atom  39O    basis set group =>   2
Atom  40O    basis set group =>   2
Atom  41O    basis set group =>   2
Atom  42O    basis set group =>   2
Atom  43O    basis set group =>   2
Atom  44O    basis set group =>   2
Atom  45O    basis set group =>   2
Atom  46O    basis set group =>   2
Atom  47O    basis set group =>   2
Atom  48O    basis set group =>   2
Atom  49O    basis set group =>   2
Atom  50Si   basis set group =>   1
Atom  51Si   basis set group =>   1
Atom  52Si   basis set group =>   1
Atom  53Si   basis set group =>   1
Atom  54O    basis set group =>   2
Atom  55O    basis set group =>   2
Atom  56O    basis set group =>   2
Atom  57O    basis set group =>   2
Atom  58O    basis set group =>   2
Atom  59O    basis set group =>   2
Atom  60O    basis set group =>   2
Atom  61O    basis set group =>   2
Atom  62O    basis set group =>   2
Atom  63O    basis set group =>   2
Atom  64Si   basis set group =>   1
Atom  65Si   basis set group =>   1
Atom  66Si   basis set group =>   1
Atom  67Si   basis set group =>   1
Atom  68O    basis set group =>   2
Atom  69O    basis set group =>   2
Atom  70O    basis set group =>   2
Atom  71O    basis set group =>   2
Atom  72O    basis set group =>   2
Atom  73O    basis set group =>   2
Atom  74O    basis set group =>   2
Atom  75O    basis set group =>   2
Atom  76O    basis set group =>   2
Atom  77O    basis set group =>   2
Atom  78O    basis set group =>   2
Atom  79Si   basis set group =>   1
Atom  80O    basis set group =>   2
Atom  81O    basis set group =>   2
Atom  82O    basis set group =>   2
Atom  83O    basis set group =>   2
Atom  84Si   basis set group =>   1
Atom  85O    basis set group =>   2
Atom  86O    basis set group =>   2
Atom  87O    basis set group =>   2
Atom  88O    basis set group =>   2
Atom  89O    basis set group =>   2
Atom  90H    basis set group =>   3
Atom  91H    basis set group =>   3
Atom  92H    basis set group =>   3
Atom  93H    basis set group =>   3
Atom  94H    basis set group =>   3
Atom  95H    basis set group =>   3
Atom  96H    basis set group =>   3
Atom  97H    basis set group =>   3
Atom  98H    basis set group =>   3
Atom  99H    basis set group =>   3
Atom 100H    basis set group =>   3
Atom 101H    basis set group =>   3
Atom 102H    basis set group =>   3
Atom 103H    basis set group =>   3
Atom 104H    basis set group =>   3
Atom 105H    basis set group =>   3
Atom 106H    basis set group =>   3
Atom 107H    basis set group =>   3
Atom 108H    basis set group =>   3
Atom 109H    basis set group =>   3
Atom 110H    basis set group =>   3
Atom 111H    basis set group =>   3
Atom 112H    basis set group =>   3
Atom 113H    basis set group =>   3
Atom 114H    basis set group =>   3
Atom 115H    basis set group =>   3
Atom 116H    basis set group =>   3
Atom 117H    basis set group =>   3
Atom 118H    basis set group =>   3
Atom 119H    basis set group =>   3
Atom 120H    basis set group =>   3
Atom 121H    basis set group =>   3
Atom 122H    basis set group =>   3
Atom 123H    basis set group =>   3
Atom 124H    basis set group =>   3
Atom 125H    basis set group =>   3
---------------------------------
AUXILIARY/J BASIS SET INFORMATION
---------------------------------
There are 3 groups of distinct atoms

 Group   1 Type Si  : 14s5p5d2f1g contracted to 8s4p3d1f1g pattern {71111111/2111/311/2/1}
 Group   2 Type O   : 12s5p4d2f1g contracted to 6s4p3d1f1g pattern {711111/2111/211/2/1}
 Group   3 Type H   : 5s2p1d contracted to 3s1p1d pattern {311/2/1}

Atom   0Si   basis set group =>   1
Atom   1Si   basis set group =>   1
Atom   2Si   basis set group =>   1
Atom   3O    basis set group =>   2
Atom   4O    basis set group =>   2
Atom   5O    basis set group =>   2
Atom   6O    basis set group =>   2
Atom   7O    basis set group =>   2
Atom   8O    basis set group =>   2
Atom   9O    basis set group =>   2
Atom  10Si   basis set group =>   1
Atom  11Si   basis set group =>   1
Atom  12Si   basis set group =>   1
Atom  13O    basis set group =>   2
Atom  14O    basis set group =>   2
Atom  15O    basis set group =>   2
Atom  16O    basis set group =>   2
Atom  17O    basis set group =>   2
Atom  18O    basis set group =>   2
Atom  19O    basis set group =>   2
Atom  20O    basis set group =>   2
Atom  21Si   basis set group =>   1
Atom  22Si   basis set group =>   1
Atom  23Si   basis set group =>   1
Atom  24Si   basis set group =>   1
Atom  25O    basis set group =>   2
Atom  26O    basis set group =>   2
Atom  27O    basis set group =>   2
Atom  28O    basis set group =>   2
Atom  29O    basis set group =>   2
Atom  30O    basis set group =>   2
Atom  31O    basis set group =>   2
Atom  32O    basis set group =>   2
Atom  33O    basis set group =>   2
Atom  34O    basis set group =>   2
Atom  35Si   basis set group =>   1
Atom  36Si   basis set group =>   1
Atom  37Si   basis set group =>   1
Atom  38Si   basis set group =>   1
Atom  39O    basis set group =>   2
Atom  40O    basis set group =>   2
Atom  41O    basis set group =>   2
Atom  42O    basis set group =>   2
Atom  43O    basis set group =>   2
Atom  44O    basis set group =>   2
Atom  45O    basis set group =>   2
Atom  46O    basis set group =>   2
Atom  47O    basis set group =>   2
Atom  48O    basis set group =>   2
Atom  49O    basis set group =>   2
Atom  50Si   basis set group =>   1
Atom  51Si   basis set group =>   1
Atom  52Si   basis set group =>   1
Atom  53Si   basis set group =>   1
Atom  54O    basis set group =>   2
Atom  55O    basis set group =>   2
Atom  56O    basis set group =>   2
Atom  57O    basis set group =>   2
Atom  58O    basis set group =>   2
Atom  59O    basis set group =>   2
Atom  60O    basis set group =>   2
Atom  61O    basis set group =>   2
Atom  62O    basis set group =>   2
Atom  63O    basis set group =>   2
Atom  64Si   basis set group =>   1
Atom  65Si   basis set group =>   1
Atom  66Si   basis set group =>   1
Atom  67Si   basis set group =>   1
Atom  68O    basis set group =>   2
Atom  69O    basis set group =>   2
Atom  70O    basis set group =>   2
Atom  71O    basis set group =>   2
Atom  72O    basis set group =>   2
Atom  73O    basis set group =>   2
Atom  74O    basis set group =>   2
Atom  75O    basis set group =>   2
Atom  76O    basis set group =>   2
Atom  77O    basis set group =>   2
Atom  78O    basis set group =>   2
Atom  79Si   basis set group =>   1
Atom  80O    basis set group =>   2
Atom  81O    basis set group =>   2
Atom  82O    basis set group =>   2
Atom  83O    basis set group =>   2
Atom  84Si   basis set group =>   1
Atom  85O    basis set group =>   2
Atom  86O    basis set group =>   2
Atom  87O    basis set group =>   2
Atom  88O    basis set group =>   2
Atom  89O    basis set group =>   2
Atom  90H    basis set group =>   3
Atom  91H    basis set group =>   3
Atom  92H    basis set group =>   3
Atom  93H    basis set group =>   3
Atom  94H    basis set group =>   3
Atom  95H    basis set group =>   3
Atom  96H    basis set group =>   3
Atom  97H    basis set group =>   3
Atom  98H    basis set group =>   3
Atom  99H    basis set group =>   3
Atom 100H    basis set group =>   3
Atom 101H    basis set group =>   3
Atom 102H    basis set group =>   3
Atom 103H    basis set group =>   3
Atom 104H    basis set group =>   3
Atom 105H    basis set group =>   3
Atom 106H    basis set group =>   3
Atom 107H    basis set group =>   3
Atom 108H    basis set group =>   3
Atom 109H    basis set group =>   3
Atom 110H    basis set group =>   3
Atom 111H    basis set group =>   3
Atom 112H    basis set group =>   3
Atom 113H    basis set group =>   3
Atom 114H    basis set group =>   3
Atom 115H    basis set group =>   3
Atom 116H    basis set group =>   3
Atom 117H    basis set group =>   3
Atom 118H    basis set group =>   3
Atom 119H    basis set group =>   3
Atom 120H    basis set group =>   3
Atom 121H    basis set group =>   3
Atom 122H    basis set group =>   3
Atom 123H    basis set group =>   3
Atom 124H    basis set group =>   3
Atom 125H    basis set group =>   3

Checking for AutoStart:
The File: surface_esp.gbw exists
Trying to determine its content:
     ... Fine, the file contains calculation information
     ... Fine, the calculation information was read
     ... Fine, the file contains a basis set
     ... Fine, the basis set was read
     ... Fine, the file contains a geometry
     ... Fine, the geometry was read
     ... The file does not contain orbitals - skipping AutoStart


           ************************************************************
           *        Program running with 10 parallel MPI-processes    *
           *              working on a common directory               *
           ************************************************************
------------------------------------------------------------------------------
                             ORCA STARTUP CALCULATIONS
                           -- RI-GTO INTEGRALS CHOSEN --
------------------------------------------------------------------------------
------------------------------------------------------------------------------
                   ___                                                        
                  /   \      - P O W E R E D   B Y -                         
                 /     \                                                     
                 |  |  |   _    _      __       _____    __    __             
                 |  |  |  | |  | |    /  \     |  _  \  |  |  /  |          
                  \  \/   | |  | |   /    \    | | | |  |  | /  /          
                 / \  \   | |__| |  /  /\  \   | |_| |  |  |/  /          
                |  |  |   |  __  | /  /__\  \  |    /   |      \           
                |  |  |   | |  | | |   __   |  |    \   |  |\   \          
                \     /   | |  | | |  |  |  |  | |\  \  |  | \   \       
                 \___/    |_|  |_| |__|  |__|  |_| \__\ |__|  \__/        
                                                                              
                      - O R C A' S   B I G   F R I E N D -                    
                                      &                                       
                       - I N T E G R A L  F E E D E R -                       
                                                                              
 v1 FN, 2020, v2 2021, v3 2022-2024                                           
------------------------------------------------------------------------------


----------------------
SHARK INTEGRAL PACKAGE
----------------------

Number of atoms                             ...    126
Number of basis functions                   ...   3150
Number of shells                            ...   1182
Maximum angular momentum                    ...      3
Integral batch strategy                     ... SHARK/LIBINT Hybrid
RI-J (if used) integral strategy            ... SPLIT-RIJ (Revised 2003 algorithm where possible)
Printlevel                                  ...      1
Contraction scheme used                     ... SEGMENTED contraction
Prescreening option                         ... SCHWARTZ
   Thresh                                   ... 2.500e-11
   Tcut                                     ... 2.500e-12
   Tpresel                                  ... 2.500e-12 
Coulomb Range Separation                    ... NOT USED
Exchange Range Separation                   ... NOT USED
Multipole approximations                    ... NOT USED
Finite Nucleus Model                        ... NOT USED
CABS basis                                  ... NOT available
Auxiliary Coulomb fitting basis             ... AVAILABLE
   # of basis functions in Aux-J            ...   4854
   # of shells in Aux-J                     ...   1578
   Maximum angular momentum in Aux-J        ...      4
Auxiliary J/K fitting basis                 ... NOT available
Auxiliary Correlation fitting basis         ... NOT available
Auxiliary 'external' fitting basis          ... NOT available

Checking pre-screening integrals            ... done (  0.0 sec) Dimension = 1182
   => SHARK Basis and OBASIS are compatible. Storing Pre-screening
Shell pair information
Shell pair cut-off parameter TPreSel        ...   2.5e-12
Total number of shell pairs                 ...    699153
Shell pairs after pre-screening             ...    181153
Total number of primitive shell pairs       ...   2388444
Primitive shell pairs kept                  ...    344789
          la=0 lb=0:  36981 shell pairs
          la=1 lb=0:  54948 shell pairs
          la=1 lb=1:  20615 shell pairs
          la=2 lb=0:  23460 shell pairs
          la=2 lb=1:  17629 shell pairs
          la=2 lb=2:   3838 shell pairs
          la=3 lb=0:  10768 shell pairs
          la=3 lb=1:   8650 shell pairs
          la=3 lb=2:   3432 shell pairs
          la=3 lb=3:    832 shell pairs

Checking whether 4 symmetric matrices of dimension 3150 fit in memory
:Max Core in MB      =   2000.00
 MB in use           =    218.65
 MB left             =   1781.35
 MB needed           =    151.45
 Data fit in memory  = YES
Calculating RI/J V-Matrix + Cholesky decomp.... done (  2.8 sec)
Calculating Nuclear repulsion               ... done (  0.0 sec) ENN=  31164.292783861463 Eh

Diagonalization of the overlap matrix:
Smallest eigenvalue                        ... 2.769e-04
Time for diagonalization                   ...    1.650 sec
Threshold for overlap eigenvalues          ... 1.000e-07
Number of eigenvalues below threshold      ... 0
Time for construction of square roots      ...    1.627 sec
Total time needed                          ...    3.761 sec

-------------------
DFT GRID GENERATION
-------------------

General Integration Accuracy     IntAcc      ... 4.388
Radial Grid Type                 RadialGrid  ... OptM3 with GC (2021)
Angular Grid (max. ang.)         AngularGrid ... 4 (Lebedev-302)
Angular grid pruning method      GridPruning ... 4 (adaptive)
Weight generation scheme         WeightScheme... mBecke (2022)
Basis function cutoff            BFCut       ... 1.0000e-11
Integration weight cutoff        WCut        ... 1.0000e-14
Partially contracted basis set               ... off
Rotationally invariant grid construction     ... off
Angular grids for H and He will be reduced by one unit

Total number of grid points                  ...   682736
Total number of batches                      ...    10731
Average number of points per batch           ...       63
Average number of grid points per atom       ...     5419

--------------------
COSX GRID GENERATION
--------------------

GRIDX 1
-------
General Integration Accuracy     IntAcc      ... 3.816
Radial Grid Type                 RadialGrid  ... OptM3 with GC (2021)
Angular Grid (max. ang.)         AngularGrid ... 1 (Lebedev-50)
Angular grid pruning method      GridPruning ... 4 (adaptive)
Weight generation scheme         WeightScheme... mBecke (2022)
Basis function cutoff            BFCut       ... 1.0000e-11
Integration weight cutoff        WCut        ... 1.0000e-14
Partially contracted basis set               ... on
Rotationally invariant grid construction     ... off
Angular grids for H and He will be reduced by one unit

Total number of grid points                  ...   109350
Total number of batches                      ...      913
Average number of points per batch           ...      119
Average number of grid points per atom       ...      868
UseSFitting                                  ... on

GRIDX 2
-------
General Integration Accuracy     IntAcc      ... 4.020
Radial Grid Type                 RadialGrid  ... OptM3 with GC (2021)
Angular Grid (max. ang.)         AngularGrid ... 2 (Lebedev-110)
Angular grid pruning method      GridPruning ... 4 (adaptive)
Weight generation scheme         WeightScheme... mBecke (2022)
Basis function cutoff            BFCut       ... 1.0000e-11
Integration weight cutoff        WCut        ... 1.0000e-14
Partially contracted basis set               ... on
Rotationally invariant grid construction     ... off
Angular grids for H and He will be reduced by one unit

Total number of grid points                  ...   187857
Total number of batches                      ...     1538
Average number of points per batch           ...      122
Average number of grid points per atom       ...     1491
UseSFitting                                  ... on

GRIDX 3
-------
General Integration Accuracy     IntAcc      ... 4.338
Radial Grid Type                 RadialGrid  ... OptM3 with GC (2021)
Angular Grid (max. ang.)         AngularGrid ... 3 (Lebedev-194)
Angular grid pruning method      GridPruning ... 4 (adaptive)
Weight generation scheme         WeightScheme... mBecke (2022)
Basis function cutoff            BFCut       ... 1.0000e-11
Integration weight cutoff        WCut        ... 1.0000e-14
Partially contracted basis set               ... on
Rotationally invariant grid construction     ... off
Angular grids for H and He will be reduced by one unit

Total number of grid points                  ...   421466
Total number of batches                      ...     3363
Average number of points per batch           ...      125
Average number of grid points per atom       ...     3345
UseSFitting                                  ... on
Grids setup in  26.0 sec
Initializing property integral containers    ... done (  0.1 sec)

SHARK setup successfully completed in  40.1 seconds

Maximum memory used throughout the entire STARTUP-calculation: 486.7 MB


           ************************************************************
           *        Program running with 10 parallel MPI-processes    *
           *              working on a common directory               *
           ************************************************************
-------------------------------------------------------------------------------
                                 ORCA GUESS
                   Start orbitals & Density for SCF / CASSCF
-------------------------------------------------------------------------------

------------
SCF SETTINGS
------------
Hamiltonian:
 Density Functional     Method          .... DFT(GTOs)
 Exchange Functional    Exchange        .... PBE
   PBE kappa parameter   XKappa         ....  0.804000
   PBE mue parameter    XMuePBE         ....  0.219520
 Correlation Functional Correlation     .... PBE
   PBE beta parameter  CBetaPBE         ....  0.066725
 LDA part of GGA corr.  LDAOpt          .... PW91-LDA
 Gradients option       PostSCFGGA      .... off
 Hybrid DFT is turned on
   Fraction HF Exchange ScalHFX         ....  0.250000
   Scaling of DF-GGA-X  ScalDFX         ....  0.750000
   Scaling of DF-GGA-C  ScalDFC         ....  1.000000
   Scaling of DF-LDA-C  ScalLDAC        ....  1.000000
   Perturbative correction              ....  0.000000
   NL short-range parameter             ....  6.900000
 RI-approximation to the Coulomb term is turned on
   Number of AuxJ basis functions       .... 4854
   RIJ-COSX (HFX calculated with COS-X)).... on


General Settings:
 Integral files         IntName         .... surface_esp
 Hartree-Fock type      HFTyp           .... RHF
 Total Charge           Charge          ....    0
 Multiplicity           Mult            ....    1
 Number of Electrons    NEL             ....  900
 Basis Dimension        Dim             .... 3150
 Nuclear Repulsion      ENuc            ....  31164.2927838615 Eh

Convergence Acceleration:
 AO-DIIS                CNVDIIS         .... on
   Start iteration      DIISMaxIt       ....    12
   Startup error        DIISStart       ....  0.200000
   # of expansion vecs  DIISMaxEq       ....     5
   Bias factor          DIISBfac        ....   1.050
   Max. coefficient     DIISMaxC        ....  10.000
 MO-DIIS                CNVKDIIS        .... off
 Trust-Rad. Augm. Hess. CNVTRAH         .... auto
   Auto Start mean grad. ratio tolernc. ....  1.125000
   Auto Start start iteration           ....    50
   Auto Start num. interpolation iter.  ....    10
   Max. Number of Micro iterations      ....    24
   Max. Number of Macro iterations      .... Maxiter - #DIIS iter
   Number of Davidson start vectors     ....     2
   Converg. threshold    (grad. norm)   ....   1.000e-05
   Grad. Scal. Fac. for Micro threshold ....   0.100
   Minimum threshold for Micro iter.    ....   1.000e-02
   NR start threshold (gradient norm)   ....   1.000e-04
   Initial trust radius                 ....   0.400
   Minimum AH scaling param. (alpha)    ....   1.000
   Maximum AH scaling param. (alpha)    .... 1000.000
   Quad. conv. algorithm                .... NR
   White noise on init. David. guess    .... on
   Maximum white noise                  ....   0.010
   Pseudo random numbers                .... off
   Inactive MOs                         .... canonical
   Orbital update algorithm             .... Taylor
   Preconditioner                       .... Diag
   Full preconditioner red. dimension   ....   250
 SOSCF                 CNVSOSCF           .... on
   Start iteration     SOSCFMaxIt         ....   150
   Startup grad/error  SOSCFStart         ....  0.003300
   Hessian update      SOSCFHessUp        .... L-BFGS
   Autom. constraints  SOSCFAutoConstrain .... off
 Level Shifting         CNVShift        .... on
   Level shift para.    LevelShift      ....    0.2500
   Turn off err/grad.   ShiftErr        ....    0.0010
 Zerner damping         CNVZerner       .... off
 Static damping         CNVDamp         .... on
   Fraction old density DampFac         ....    0.7000
   Max. Damping (<1)    DampMax         ....    0.9800
   Min. Damping (>=0)   DampMin         ....    0.0000
   Turn off err/grad.   DampErr         ....    0.1000

SCF Procedure:
 Maximum # iterations   MaxIter         ....   125
 SCF integral mode      SCFMode         .... Direct
   Integral package                     .... SHARK and LIBINT hybrid scheme
 Reset frequency        DirectResetFreq ....    20
 Integral Threshold     Thresh          ....  2.500e-11 Eh
 Primitive CutOff       TCut            ....  2.500e-12 Eh

Convergence Tolerance:
 Convergence Check Mode ConvCheckMode   .... Total+1el-Energy
 Convergence forced     ConvForced      .... 0
 Energy Change          TolE            ....  1.000e-08 Eh
 1-El. energy change                    ....  1.000e-05 Eh
 Orbital Gradient       TolG            ....  1.000e-05
 Orbital Rotation angle TolX            ....  1.000e-05
 DIIS Error             TolErr          ....  5.000e-07

------------------------------
INITIAL GUESS: MODEL POTENTIAL
------------------------------
Loading Hartree-Fock densities                     ... done
Calculating cut-offs                               ... done
Initializing the effective Hamiltonian             ... done
Setting up the integral package (SHARK)            ... done
Starting the Coulomb interaction                   ... done (   6.6 sec)
Making the grid                                    ... done (   2.0 sec)
Mapping shells                                     ... done
Starting the XC term evaluation                    ... done (   0.7 sec)
  promolecular density results
     # of electrons  =    899.934153560
     EX              =  -1036.961313562
     EC              =    -32.245153029
     EX+EC           =  -1069.206466591
Transforming the Hamiltonian                       ... done (   1.8 sec)
Diagonalizing the Hamiltonian                      ... done (   1.7 sec)
Back transforming the eigenvectors                 ... done (   2.2 sec)
Now organizing SCF variables                       ... done
                      ------------------
                      INITIAL GUESS DONE (  21.0 sec)
                      ------------------
             **** ENERGY FILE WAS UPDATED (surface_esp.en.tmp) ****
Finished Guess after  30.5 sec
Maximum memory used throughout the entire GUESS-calculation: 434.0 MB


           ************************************************************
           *        Program running with 10 parallel MPI-processes    *
           *              working on a common directory               *
           ************************************************************

-------------------------------------------------------------------------------------------
                                      ORCA LEAN-SCF
                              memory conserving SCF solver
-------------------------------------------------------------------------------------------

----------------------------------------D-I-I-S--------------------------------------------
Iteration    Energy (Eh)           Delta-E    RMSDP     MaxDP     DIISErr   Damp  Time(sec)
-------------------------------------------------------------------------------------------
               ***  Starting incremental Fock matrix formation  ***
    1    -11928.6236565780855017     0.00e+00  1.76e-03  6.24e-02  3.21e-01  0.700 101.6
    2    -11931.2977961801880156    -2.67e+00  1.09e-03  3.12e-02  1.42e-01  0.700  67.5
                               ***Turning on AO-DIIS***
    3    -11932.2315578326524701    -9.34e-01  3.30e-04  8.70e-03  4.18e-02  0.700  64.5
    4    -11932.8071230334608117    -5.76e-01  4.19e-04  1.24e-02  1.69e-02  0.000  62.0
    5    -11934.1151415703861858    -1.31e+00  1.58e-04  4.98e-03  8.88e-03  0.000  66.8
                              *** Initializing SOSCF ***
---------------------------------------S-O-S-C-F--------------------------------------
Iteration    Energy (Eh)           Delta-E    RMSDP     MaxDP     MaxGrad    Time(sec)
--------------------------------------------------------------------------------------
    6    -11934.1190688250062522    -3.93e-03  5.17e-05  1.96e-03  2.33e-03    72.1
               *** Restarting incremental Fock matrix formation ***
    7    -11934.1196249730492127    -5.56e-04  2.74e-05  9.25e-04  1.39e-04   114.5
    8    -11934.1196160890322062     8.88e-06  1.10e-05  5.09e-04  1.56e-04    73.7
    9    -11934.1196688877389533    -5.28e-05  3.02e-06  9.51e-05  1.24e-05    63.7
   10    -11934.1196689471689751    -5.94e-08  8.49e-07  5.30e-05  1.86e-05    59.3
   11    -11934.1196694282261888    -4.81e-07  4.41e-07  1.45e-05  2.20e-06    49.6
                  *** Gradient check signals convergence ***

               *****************************************************
               *                     SUCCESS                       *
               *           SCF CONVERGED AFTER  11 CYCLES          *
               *****************************************************

Recomputing exchange energy using gridx3       ... done (  167.558 sec)
Old exchange energy                            :   -262.838994090 Eh
New exchange energy                            :   -262.838903816 Eh
Exchange energy change after final integration :      0.000090274 Eh
Total energy after final integration           : -11934.119579384 Eh
             **** ENERGY FILE WAS UPDATED (surface_esp.en.tmp) ****

----------------
TOTAL SCF ENERGY
----------------

Total Energy       :     -11934.11957938427440 Eh         -324743.90342 eV

Components:
Nuclear Repulsion  :      31164.29278386146325 Eh          848023.51933 eV
Electronic Energy  :     -43098.41245351955877 Eh        -1172767.42520 eV
One Electron Energy:     -78777.23710889102949 Eh        -2143637.60216 eV
Two Electron Energy:      35678.82465537147073 Eh          970870.17696 eV

Virial components:
Potential Energy   :     -23833.96180182197713 Eh         -648555.07253 eV
Kinetic Energy     :      11899.84222243770455 Eh          323811.16911 eV
Virial Ratio       :          2.00288048835487

DFT components:
N(Alpha)           :      449.999939856901 electrons
N(Beta)            :      449.999939856901 electrons
N(Total)           :      899.999879713802 electrons
E(X)               :     -786.144407469448 Eh       
E(C)               :      -32.393838222212 Eh       
E(XC)              :     -818.538245691659 Eh       

---------------
SCF CONVERGENCE
---------------

  Last Energy change         ...    4.8106e-07  Tolerance :   1.0000e-08
  Last MAX-Density change    ...    1.4477e-05  Tolerance :   1.0000e-07
  Last RMS-Density change    ...    4.4098e-07  Tolerance :   5.0000e-09
  Last DIIS Error            ...    2.3312e-03  Tolerance :   5.0000e-07
  Last Orbital Gradient      ...    2.2049e-06  Tolerance :   1.0000e-05
  Last Orbital Rotation      ...    4.2683e-06  Tolerance :   1.0000e-05


----------------
ORBITAL ENERGIES
----------------

  NO   OCC          E(Eh)            E(eV) 
   0   2.0000     -66.369997     -1806.0194 
   1   2.0000     -66.369515     -1806.0063 
   2   2.0000     -66.356696     -1805.6575 
   3   2.0000     -66.356581     -1805.6544 
   4   2.0000     -66.349420     -1805.4595 
   5   2.0000     -66.348346     -1805.4303 
   6   2.0000     -66.345680     -1805.3577 
   7   2.0000     -66.344165     -1805.3165 
   8   2.0000     -66.343336     -1805.2939 
   9   2.0000     -66.341502     -1805.2440 
  10   2.0000     -66.332074     -1804.9875 
  11   2.0000     -66.331458     -1804.9707 
  12   2.0000     -66.329855     -1804.9271 
  13   2.0000     -66.327126     -1804.8529 
  14   2.0000     -66.312450     -1804.4535 
  15   2.0000     -66.312065     -1804.4430 
  16   2.0000     -66.311630     -1804.4312 
  17   2.0000     -66.302052     -1804.1706 
  18   2.0000     -66.300637     -1804.1321 
  19   2.0000     -66.297920     -1804.0581 
  20   2.0000     -66.291973     -1803.8963 
  21   2.0000     -66.285971     -1803.7330 
  22   2.0000     -66.285604     -1803.7230 
  23   2.0000     -66.276323     -1803.4704 
  24   2.0000     -19.283778      -524.7383 
  25   2.0000     -19.281085      -524.6650 
  26   2.0000     -19.265695      -524.2462 
  27   2.0000     -19.265570      -524.2428 
  28   2.0000     -19.264331      -524.2091 
  29   2.0000     -19.262188      -524.1508 
  30   2.0000     -19.261305      -524.1268 
  31   2.0000     -19.260570      -524.1067 
  32   2.0000     -19.260128      -524.0947 
  33   2.0000     -19.259885      -524.0881 
  34   2.0000     -19.259466      -524.0767 
  35   2.0000     -19.258819      -524.0591 
  36   2.0000     -19.258156      -524.0411 
  37   2.0000     -19.257885      -524.0337 
  38   2.0000     -19.255875      -523.9790 
  39   2.0000     -19.254823      -523.9504 
  40   2.0000     -19.254031      -523.9288 
  41   2.0000     -19.251730      -523.8662 
  42   2.0000     -19.249811      -523.8140 
  43   2.0000     -19.249628      -523.8090 
  44   2.0000     -19.249452      -523.8042 
  45   2.0000     -19.248398      -523.7755 
  46   2.0000     -19.246072      -523.7122 
  47   2.0000     -19.245648      -523.7007 
  48   2.0000     -19.237470      -523.4782 
  49   2.0000     -19.236317      -523.4468 
  50   2.0000     -19.235370      -523.4210 
  51   2.0000     -19.234994      -523.4108 
  52   2.0000     -19.233787      -523.3780 
  53   2.0000     -19.231671      -523.3204 
  54   2.0000     -19.230844      -523.2979 
  55   2.0000     -19.230158      -523.2792 
  56   2.0000     -19.228824      -523.2429 
  57   2.0000     -19.228252      -523.2273 
  58   2.0000     -19.227225      -523.1994 
  59   2.0000     -19.226944      -523.1917 
  60   2.0000     -19.225313      -523.1474 
  61   2.0000     -19.221239      -523.0365 
  62   2.0000     -19.218885      -522.9725 
  63   2.0000     -19.217988      -522.9481 
  64   2.0000     -19.212374      -522.7953 
  65   2.0000     -19.211747      -522.7782 
  66   2.0000     -19.210081      -522.7329 
  67   2.0000     -19.208787      -522.6977 
  68   2.0000     -19.208632      -522.6934 
  69   2.0000     -19.208036      -522.6772 
  70   2.0000     -19.208020      -522.6768 
  71   2.0000     -19.207633      -522.6663 
  72   2.0000     -19.205726      -522.6144 
  73   2.0000     -19.205194      -522.5999 
  74   2.0000     -19.203482      -522.5533 
  75   2.0000     -19.202039      -522.5140 
  76   2.0000     -19.201560      -522.5010 
  77   2.0000     -19.200188      -522.4637 
  78   2.0000     -19.199920      -522.4564 
  79   2.0000     -19.197431      -522.3887 
  80   2.0000     -19.194000      -522.2953 
  81   2.0000     -19.193347      -522.2775 
  82   2.0000     -19.192277      -522.2484 
[...]
 67 Si    13.3220    14.0000     0.6780     4.9533     4.9533    -0.0000
 68 O      8.2760     8.0000    -0.2760     2.3800     2.3800    -0.0000
 69 O      8.3168     8.0000    -0.3168     2.3003     2.3003    -0.0000
 70 O      8.3075     8.0000    -0.3075     2.2262     2.2262    -0.0000
 71 O      8.3028     8.0000    -0.3028     2.3565     2.3565     0.0000
 72 O      8.2654     8.0000    -0.2654     2.3879     2.3879    -0.0000
 73 O      8.3104     8.0000    -0.3104     2.2866     2.2866     0.0000
 74 O      8.5471     8.0000    -0.5471     2.0441     2.0441    -0.0000
 75 O      8.5458     8.0000    -0.5458     2.0641     2.0641     0.0000
 76 O      8.4961     8.0000    -0.4961     2.1246     2.1246     0.0000
 77 O      8.5429     8.0000    -0.5429     2.0479     2.0479     0.0000
 78 O      8.4990     8.0000    -0.4990     2.1550     2.1550     0.0000
 79 Si    13.3495    14.0000     0.6505     5.0334     5.0334    -0.0000
 80 O      8.5092     8.0000    -0.5092     2.1340     2.1340    -0.0000
 81 O      8.3000     8.0000    -0.3000     2.2773     2.2773    -0.0000
 82 O      8.5125     8.0000    -0.5125     2.1245     2.1245    -0.0000
 83 O      8.4900     8.0000    -0.4900     2.0980     2.0980    -0.0000
 84 Si    13.3339    14.0000     0.6661     5.0222     5.0222    -0.0000
 85 O      8.3111     8.0000    -0.3111     2.2939     2.2939    -0.0000
 86 O      8.5058     8.0000    -0.5058     2.1423     2.1423    -0.0000
 87 O      8.4961     8.0000    -0.4961     2.1436     2.1436     0.0000
 88 O      8.3165     8.0000    -0.3165     2.2797     2.2797    -0.0000
 89 O      8.5549     8.0000    -0.5549     2.0520     2.0520    -0.0000
 90 H      0.6757     1.0000     0.3243     0.9145     0.9145     0.0000
 91 H      0.6704     1.0000     0.3296     0.9124     0.9124    -0.0000
 92 H      0.6822     1.0000     0.3178     0.9172     0.9172     0.0000
 93 H      0.6789     1.0000     0.3211     0.9321     0.9321     0.0000
 94 H      0.6824     1.0000     0.3176     0.9259     0.9259     0.0000
 95 H      0.6673     1.0000     0.3327     0.9096     0.9096    -0.0000
 96 H      0.6677     1.0000     0.3323     0.9106     0.9106    -0.0000
 97 H      0.6746     1.0000     0.3254     0.9123     0.9123     0.0000
 98 H      0.6813     1.0000     0.3187     0.9253     0.9253    -0.0000
 99 H      0.6738     1.0000     0.3262     0.9253     0.9253    -0.0000
100 H      0.6711     1.0000     0.3289     0.9132     0.9132    -0.0000
101 H      0.6651     1.0000     0.3349     0.9231     0.9231     0.0000
102 H      0.6440     1.0000     0.3560     0.9160     0.9160     0.0000
103 H      0.6392     1.0000     0.3608     0.9159     0.9159    -0.0000
104 H      0.6593     1.0000     0.3407     0.9264     0.9264    -0.0000
105 H      0.6439     1.0000     0.3561     0.9156     0.9156    -0.0000
106 H      0.6647     1.0000     0.3353     0.9230     0.9230     0.0000
107 H      0.6596     1.0000     0.3404     0.9263     0.9263     0.0000
108 H      0.6405     1.0000     0.3595     0.9162     0.9162    -0.0000
109 H      0.6715     1.0000     0.3285     0.9135     0.9135    -0.0000
110 H      0.6726     1.0000     0.3274     0.9139     0.9139     0.0000
111 H      0.6561     1.0000     0.3439     0.9248     0.9248    -0.0000
112 H      0.6574     1.0000     0.3426     0.9231     0.9231    -0.0000
113 H      0.6662     1.0000     0.3338     0.9293     0.9293     0.0000
114 H      0.6658     1.0000     0.3342     0.9255     0.9255    -0.0000
115 H      0.6572     1.0000     0.3428     0.9222     0.9222     0.0000
116 H      0.6555     1.0000     0.3445     0.9247     0.9247    -0.0000
117 H      0.6652     1.0000     0.3348     0.9256     0.9256    -0.0000
118 H      0.6548     1.0000     0.3452     0.9245     0.9245    -0.0000
119 H      0.6722     1.0000     0.3278     0.9137     0.9137     0.0000
120 H      0.6782     1.0000     0.3218     0.9175     0.9175     0.0000
121 H      0.6792     1.0000     0.3208     0.9193     0.9193    -0.0000
122 H      0.6630     1.0000     0.3370     0.9225     0.9225    -0.0000
123 H      0.6751     1.0000     0.3249     0.9153     0.9153     0.0000
124 H      0.6762     1.0000     0.3238     0.9155     0.9155     0.0000
125 H      0.6585     1.0000     0.3415     0.9277     0.9277    -0.0000

  Mayer bond orders larger than 0.100000
B(  0-Si,  3-O ) :   1.3162 B(  0-Si,  4-O ) :   1.1140 B(  0-Si,  7-O ) :   1.2535 
B(  0-Si, 16-O ) :   1.1965 B(  1-Si,  4-O ) :   1.2094 B(  1-Si,  6-O ) :   1.2026 
B(  1-Si,  8-O ) :   1.1296 B(  1-Si, 26-O ) :   1.2174 B(  2-Si,  5-O ) :   1.3097 
B(  2-Si,  6-O ) :   1.1344 B(  2-Si,  9-O ) :   1.1591 B(  2-Si, 25-O ) :   1.2311 
B(  3-O , 90-H ) :   0.8723 B(  5-O , 91-H ) :   0.8704 B(  7-O , 92-H ) :   0.8773 
B(  8-O , 93-H ) :   0.8711 B(  9-O , 94-H ) :   0.8777 B( 10-Si, 13-O ) :   1.3458 
B( 10-Si, 15-O ) :   1.1093 B( 10-Si, 16-O ) :   1.1648 B( 10-Si, 18-O ) :   1.2740 
B( 11-Si, 14-O ) :   1.3151 B( 11-Si, 17-O ) :   1.1322 B( 11-Si, 19-O ) :   1.1592 
B( 11-Si, 40-O ) :   1.2272 B( 12-Si, 15-O ) :   1.2103 B( 12-Si, 17-O ) :   1.2043 
B( 12-Si, 20-O ) :   1.1313 B( 12-Si, 39-O ) :   1.2194 B( 13-O , 95-H ) :   0.8677 
B( 14-O , 96-H ) :   0.8682 B( 18-O , 97-H ) :   0.8735 B( 19-O , 98-H ) :   0.8772 
B( 20-O , 99-H ) :   0.8708 B( 21-Si, 25-O ) :   1.1244 B( 21-Si, 28-O ) :   1.1284 
B( 21-Si, 29-O ) :   1.3218 B( 21-Si, 31-O ) :   1.2802 B( 22-Si, 26-O ) :   1.1726 
B( 22-Si, 27-O ) :   1.2023 B( 22-Si, 32-O ) :   1.1547 B( 22-Si, 43-O ) :   1.2071 
B( 23-Si, 27-O ) :   1.1905 B( 23-Si, 30-O ) :   1.2175 B( 23-Si, 33-O ) :   1.0779 
B( 23-Si, 55-O ) :   1.2293 B( 24-Si, 28-O ) :   1.2010 B( 24-Si, 30-O ) :   1.1639 
B( 24-Si, 34-O ) :   1.1588 B( 24-Si, 54-O ) :   1.2057 B( 29-O ,100-H ) :   0.8711 
B( 31-O ,101-H ) :   0.8523 B( 32-O ,102-H ) :   0.8277 B( 33-O ,103-H ) :   0.8156 
B( 34-O ,104-H ) :   0.8408 B( 35-Si, 39-O ) :   1.1728 B( 35-Si, 42-O ) :   1.2012 
B( 35-Si, 43-O ) :   1.2045 B( 35-Si, 45-O ) :   1.1622 B( 36-Si, 40-O ) :   1.1289 
B( 36-Si, 41-O ) :   1.1249 B( 36-Si, 46-O ) :   1.2798 B( 36-Si, 49-O ) :   1.3214 
B( 37-Si, 41-O ) :   1.2045 B( 37-Si, 44-O ) :   1.1655 B( 37-Si, 47-O ) :   1.1581 
B( 37-Si, 69-O ) :   1.2031 B( 38-Si, 42-O ) :   1.1948 B( 38-Si, 44-O ) :   1.2167 
B( 38-Si, 48-O ) :   1.0864 B( 38-Si, 68-O ) :   1.2251 B( 45-O ,105-H ) :   0.8282 
B( 46-O ,106-H ) :   0.8521 B( 47-O ,107-H ) :   0.8420 B( 48-O ,108-H ) :   0.8192 
B( 49-O ,109-H ) :   0.8714 B( 50-Si, 54-O ) :   1.1305 B( 50-Si, 57-O ) :   1.1676 
B( 50-Si, 58-O ) :   1.3278 B( 50-Si, 60-O ) :   1.1928 B( 51-Si, 55-O ) :   1.1601 
B( 51-Si, 56-O ) :   1.2262 B( 51-Si, 61-O ) :   1.1655 B( 51-Si, 72-O ) :   1.1889 
B( 52-Si, 56-O ) :   1.1417 B( 52-Si, 59-O ) :   1.1668 B( 52-Si, 62-O ) :   1.2740 
B( 52-Si, 81-O ) :   1.1965 B( 53-Si, 57-O ) :   1.1276 B( 53-Si, 59-O ) :   1.1357 
B( 53-Si, 63-O ) :   1.2786 B( 53-Si, 80-O ) :   1.3084 B( 58-O ,110-H ) :   0.8716 
B( 60-O ,111-H ) :   0.8351 B( 61-O ,112-H ) :   0.8442 B( 62-O ,113-H ) :   0.8433 
B( 63-O ,114-H ) :   0.8493 B( 64-Si, 68-O ) :   1.1706 B( 64-Si, 71-O ) :   1.2107 
B( 64-Si, 72-O ) :   1.2058 B( 64-Si, 74-O ) :   1.1561 B( 65-Si, 69-O ) :   1.1341 
B( 65-Si, 70-O ) :   1.1643 B( 65-Si, 75-O ) :   1.1899 B( 65-Si, 78-O ) :   1.3307 
B( 66-Si, 70-O ) :   1.1319 B( 66-Si, 73-O ) :   1.1279 B( 66-Si, 76-O ) :   1.2754 
B( 66-Si, 86-O ) :   1.3202 B( 67-Si, 71-O ) :   1.1634 B( 67-Si, 73-O ) :   1.1967 
B( 67-Si, 77-O ) :   1.1716 B( 67-Si, 85-O ) :   1.2072 B( 74-O ,115-H ) :   0.8466 
B( 75-O ,116-H ) :   0.8343 B( 76-O ,117-H ) :   0.8481 B( 77-O ,118-H ) :   0.8330 
B( 78-O ,119-H ) :   0.8713 B( 79-Si, 81-O ) :   1.1264 B( 79-Si, 82-O ) :   1.2876 
B( 79-Si, 83-O ) :   1.2792 B( 79-Si, 88-O ) :   1.1578 B( 80-O ,120-H ) :   0.8763 
B( 82-O ,121-H ) :   0.8775 B( 83-O ,122-H ) :   0.8499 B( 84-Si, 85-O ) :   1.1339 
B( 84-Si, 87-O ) :   1.3366 B( 84-Si, 88-O ) :   1.1737 B( 84-Si, 89-O ) :   1.1730 
B( 86-O ,123-H ) :   0.8740 B( 87-O ,124-H ) :   0.8735 B( 89-O ,125-H ) :   0.8411 


-------
TIMINGS
-------

Total SCF time: 0 days 0 hours 17 min 17 sec 

Total time                  ....    1037.399 sec
Sum of individual times     ....     980.879 sec  ( 94.6%)

SCF preparation             ....      11.488 sec  (  1.1%)
Fock matrix formation       ....     790.091 sec  ( 76.2%)
  Startup                   ....      12.621 sec  (  1.6% of F)
  Split-RI-J                ....     111.161 sec  ( 14.1% of F)
  Chain of spheres X        ....     584.740 sec  ( 74.0% of F)
  XC integration            ....      65.819 sec  (  8.3% of F)
    XC Preparation          ....       0.000 sec  (  0.0% of XC)
    Basis function eval.    ....       5.627 sec  (  8.5% of XC)
    Density eval.           ....      10.723 sec  ( 16.3% of XC)
    XC-Functional eval.     ....       0.301 sec  (  0.5% of XC)
    XC-Potential eval.      ....       7.897 sec  ( 12.0% of XC)
Diagonalization             ....       0.000 sec  (  0.0%)
Density matrix formation    ....      33.929 sec  (  3.3%)
Total Energy calculation    ....      11.277 sec  (  1.1%)
Population analysis         ....       9.145 sec  (  0.9%)
Orbital Transformation      ....      13.580 sec  (  1.3%)
Orbital Orthonormalization  ....       0.000 sec  (  0.0%)
DIIS solution               ....      72.745 sec  (  7.0%)
SOSCF solution              ....      38.626 sec  (  3.7%)
Finished LeanSCF after 1039.2 sec

Maximum memory used throughout the entire LEANSCF-calculation: 730.3 MB


-------------------------------------------------------------------------------
                          DFT DISPERSION CORRECTION                            
                                                                               
                              DFTD3 V3.1  Rev 1                                
                          USING Becke-Johnson damping                          
-------------------------------------------------------------------------------
The PBE0 functional is recognized
Active option DFTDOPT                   ...         4   

molecular C6(AA) [au] = 311682.124056 


            DFT-D V3
 parameters
 s6 scaling factor         :     1.0000 
 a1 scaling factor         :     0.4145 
 s8 scaling factor         :     1.2177 
 a2 scaling factor         :     4.8593 
 ad hoc parameters k1-k3   :    16.0000     1.3333    -4.0000 

 Edisp/kcal,au: -126.753216117832  -0.201994085884 
 E6   /kcal   : -73.690009947 
 E8   /kcal   : -53.063206171 
 % E8         :  41.863400232 

-------------------------   ----------------
Dispersion correction           -0.201994086
-------------------------   ----------------


-------------------------   --------------------
FINAL SINGLE POINT ENERGY    -11934.321573470159
-------------------------   --------------------



           ************************************************************
           *        Program running with 10 parallel MPI-processes    *
           *              working on a common directory               *
           ************************************************************

------------------------------------------------------------------------------
                              ORCA PROPERTY CALCULATIONS
------------------------------------------------------------------------------

GBWName                                 ... surface_esp.gbw
Number of atoms                         ...    126
Number of basis functions               ...   3150
Max core memory                         ...   2000 MB

Electric properties:
Dipole moment                           ... YES
Quadrupole moment                       ...  NO
Static polarizability (Dipole/Dipole)   ...  NO
Static polarizability (Dipole/Quad.)    ...  NO
Static polarizability (Quad./Quad.)     ...  NO
Static polarizability (Velocity)        ...  NO
Static hyperpolarizability              ...  NO

Atomic electric properties:
Dipole moment                           ...  NO
Quadrupole moment                       ...  NO
Static polarizability                   ...  NO

Choice of electric origin               ... Center of mass
Position of electric origin             ...    16.775570    34.873932    14.647468

General magnetic properties:
Magnetizability                         ...  NO

EPR properties:
g-Tensor (aka g-matrix)                 ...  NO
Zero-Field splitting spin-orbit         ...  NO
Zero-field splitting spin-spin          ...  NO
Hyperfine couplings                     ...  NO (   0 nuclei)
Quadrupole couplings                    ...  NO (   0 nuclei)
Contact density                         ...  NO (   0 nuclei)

NMR properties:
Chemical shifts                         ...  NO (   0 nuclei)
Spin-rotation constants                 ...  NO (   0 nuclei)
Spin-spin couplings                     ...  NO (   0 nuclei,    0 pairs)

Choice of magnetic origin               ... GIAO
Position of magnetic origin             ...     0.000000     0.000000     0.000000

Properties with geometric perturbations:
SCF Hessian                             ...  NO
IR spectrum                             ...  NO
VCD spectrum                            ...  NO
X-ray spectroscopy properties:
SCF XES/XAS/RIXS spectra                ...  NO

SCF SOC stabilization energy            ...  NO
Diagonal Born-Oppenheimer correction    ...  NO

-------------
DIPOLE MOMENT
-------------

Method             : SCF
Type of density    : Electron Density
Multiplicity       :   1
Irrep              :   0
Energy             : -11934.1195793842744024 Eh
Basis              : AO
                                X                 Y                 Z
Electronic contribution:      0.644113672       0.533933905      27.326900600
Nuclear contribution   :    -12.157912068      -0.307300511     -26.806153094
                        -----------------------------------------
Total Dipole Moment    :    -11.513798396       0.226633394       0.520747506
                        -----------------------------------------
Magnitude (a.u.)       :     11.527796587
Magnitude (Debye)      :     29.301330310



--------------------
Rotational spectrum 
--------------------
 
Rotational constants in cm-1:             0.000385             0.000381             0.000197 
Rotational constants in MHz :            11.549484            11.427120             5.919190 

Dipole components along the rotational axes: 
x,y,z [a.u.] :   -10.623984     4.456514     0.400680 
x,y,z [Debye]:   -27.004021    11.327559     1.018447 

 

Dipole moment calculation done in   2.1 sec 

Maximum memory used throughout the entire PROP-calculation: 548.9 MB

--------------------------------
SUGGESTED CITATIONS FOR THIS RUN
--------------------------------

Below you find a list of papers that are relevant to this ORCA run
We neither can nor want to force you to cite these papers, but we appreciate if you do
You receive ORCA, which is the product of decades of hard work by many enthusiastic individuals, for free
The only thing we kindly ask in return is that you cite our papers,
We deeply appreciate it, if you show your appreciation for ORCA by not just citing the generic ORCA reference.

Please note that relegating all ORCA citations to the supporting information does *not* help us.
SI sections are not indexed - citations you put there will not count into any citation statistics
But we need these citations in order to attract the funding resources that allow us to do what we are doing

Therefore, if you are a happy ORCA user, please consider citing a few of the papers listed below in the main body of your paper

In addition to the list printed below, the program has created the file surface_esp.bibtex that contains the list in bibtex format
You can import this file easily into all common literature databanks and citation aid programs


List of essential papers. We consider these as the minimum necessary citations

  1. Neese, F.
     Software update: the ORCA program system, version 6.0
     WIRES Comput. Molec. Sci. 2025 15(1), e70019
     doi.org/10.1002/wcms.7019

List of papers to cite with high priority. The work reported in these papers was absolutely
necessary for this run to complete.
Our perspective: the developers of density functionals and basis sets usually get cited in chemistry papers
Good! But without the algorithms to do something with them, the functionals or basis sets would not do anything.
Hence, in our opinion, the algorithm design and method developments papers are equally worthy of getting cited

  1. Neese, F.
     An improvement of the resolution of the identity approximation for the formation of the Coulomb matrix
     J. Comp. Chem. 2003 24(14), 1740-1747
     doi.org/10.1002/jcc.10318
  2. Neese, F.; Wennmohs, F.; Hansen, A.; Becker, U.
     Efficient, approximate and parallel Hartree-Fock and hybrid DFT calculations. A 'chain-of-spheres' algorithm for the Hartree-Fock exchange
     Chem. Phys. 2009 356(1-3), 98-109
     doi.org/10.1016/j.chemphys.2008.10.036
  3. Grimme, S.; Antony, J.; Ehrlich, S.; Krieg, H.
     A consistent and accurate ab initio parametrization of density functional dispersion correction (DFT-D) for the 94 elements H-Pu
     J. Chem. Phys. 2010 132 , 154104
     doi.org/10.1063/1.3382344
  4. Grimme, S.; Ehrlich, S.; Goerigk, L.
     Effect of the damping function in dispersion corrected density functional theory
     J. Comput. Chem. 2011 32(7), 1456-1465
     doi.org/10.1002/jcc.21759
  5. Helmich-Paris, B.; de Souza, B.; Neese, F.; Izsák, R.
     An improved chain of spheres for exchange algorithm
     J. Chem. Phys. 2021 155(10), 104109
     doi.org/10.1063/5.0058766
  6. Neese, F.
     The SHARK Integral Generation and Digestion System
     J. Comp. Chem. 2022 44(3), 381
     doi.org/10.1002/jcc.26942

List of suggested additional citations. These are papers that are important in the 'surrounding' of 
of this run, or papers that preceded the highly important papers. If you like your results we are grateful for a citation.

  1. Izsak, R.; Neese, F.
     An overlap fitted chain of spheres exchange method
     J. Chem. Phys. 2011 135 , 144105
     doi.org/10.1063/1.3646921
  2. Izsak, R.; Hansen, A.; Neese, F.
     The resolution of identity and chain of spheres approximations for the LPNO-CCSD singles Fock term
     Molec. Phys. 2012 110 , 2413-2417
     doi.org/10.1080/00268976.2012.687466
  3. Neese, F.
     The ORCA program system
     WIRES Comput. Molec. Sci. 2012 2(1), 73-78
     doi.org/10.1002/wcms.81
  4. Izsak, R.; Neese, F.; Klopper, W.
     Robust fitting techniques in the chain of spheres approximation to the Fock exchange: The role of the complementary space
     J. Chem. Phys. 2013 139 , 
     doi.org/10.1063/1.4819264
  5. Neese, F.
     Software update: the ORCA program system, version 4.0
     WIRES Comput. Molec. Sci. 2018 8(1), 1-6
     doi.org/10.1002/wcms.1327
  6. Neese, F.; Wennmohs, F.; Becker, U.; Riplinger, C.
     The ORCA quantum chemistry program package
     J. Chem. Phys. 2020 152(22), 224108
     doi.org/10.1063/5.0004608
  7. Neese, F.
     Software update: The ORCA program system—Version 5.0
     WIRES Comput. Molec. Sci. 2022 12(1), e1606
     doi.org/10.1002/wcms.1606

List of optional additional citations

  1. Neese, F.
     Approximate second-order SCF convergence for spin unrestricted wavefunctions
     Chem. Phys. Lett. 2000 325(1-3), 93-98
     doi.org/10.1016/s0009-2614(00)00662-x

Timings for individual modules:

Sum of individual times          ...     1119.502 sec (=  18.658 min)
Startup calculation              ...       40.920 sec (=   0.682 min)   3.7 %
SCF iterations                   ...     1069.948 sec (=  17.832 min)  95.6 %
Property calculations            ...        8.634 sec (=   0.144 min)   0.8 %
                             ****ORCA TERMINATED NORMALLY****
TOTAL RUN TIME: 0 days 0 hours 18 minutes 41 seconds 667 msec
