126
Properties=species:S:1:pos:R:3 Coordinates=T from=T ORCA-job=T frame_6_ma=T E=T -13336.950646182675=T pbc="F F F"
Si       0.82986380      16.90495213       8.01930165
Si       3.58287836      15.40709660       7.92504328
Si       3.61105229      12.32685545       7.79951770
O       -0.39845322      16.38181910       8.94867759
O        2.14699989      16.01899997       8.38100000
O        2.17033879      11.69758878       8.20578575
O        3.71000003      13.84500001       8.38400000
O        0.52783495      16.83529032       6.42060880
O        3.80084880      15.57555264       6.31314035
O        3.82144993      12.25455051       6.18231010
Si       0.78763752      20.04125060       8.14514141
Si       3.61105617      24.59209096       7.80130039
Si       3.57851777      21.51356075       7.92750749
O       -0.34131887      20.59962471       9.17465889
O        2.17157159      25.22187721       8.21323670
O        2.14699982      20.90100012       8.38099998
O        1.04500008      18.45999994       8.38400001
O        3.71000013      23.07499994       8.38400001
O        0.23787951      20.19550616       6.62388655
O        3.81921107      24.67081912       6.18368067
O        3.77895047      21.35163893       6.31048831
Si       6.22245213      10.74834012       7.88939515
Si       6.22847541      16.89998380       8.05622908
Si       8.87159487      15.39959640       8.11984253
Si       8.88272776      12.35535394       7.93563623
O        4.81099991      11.40399995       8.38100000
O        4.83499916      16.23144217       8.57203211
O        7.52394093      16.12228654       8.68184902
O        7.47600006      11.67100003       8.38099998
O        6.39386106       9.26590832       8.52977232
O        8.96465884      13.84790037       8.60807103
O        6.19133159      10.57771203       6.27336631
O        6.35511780      16.74969105       6.43284837
O        8.85655509      15.41432487       6.47616304
O        8.99915253      12.51281478       6.30939568
Si       6.22542152      20.01145125       8.02421789
Si       6.22190100      26.17541754       7.89626466
Si       8.88151500      24.57360965       7.92084458
Si       8.86244276      21.52418003       8.06926622
O        4.83850919      20.68236523       8.54479135
O        4.81099988      25.51600007       8.38100001
O        7.47600007      25.24899993       8.38100000
O        7.52487274      20.79120159       8.63416594
O        6.28700491      18.46004499       8.50167508
O        8.96737076      23.07115430       8.56774459
O        6.33563708      20.13910271       6.39843855
O        6.19041389      26.35951280       6.28149709
O        8.99751234      24.44245871       6.29232196
O        8.84211152      21.52427849       6.42704956
O        6.39418171      27.65243962       8.54879101
Si      11.54054815      10.90283038       7.70646185
Si      11.53292416      16.88965498       7.99138989
Si      14.19019818      15.40068915       7.89093140
Si      14.23622347      12.29437367       7.90192425
O       10.14000007      11.40399994       8.38100004
O       10.19039620      16.21003885       8.62451819
O       12.85114036      16.10139244       8.53535350
O       12.80499987      11.67100013       8.38099997
O       11.70051615       9.29911164       7.90315981
O       14.36800014      13.84499997       8.38399994
O       11.52425601      11.20169106       6.10203200
O       11.50446178      16.73887846       6.36350952
O       14.06232852      15.43505688       6.26914178
O       14.37282212      12.11234487       6.29141278
Si      11.53173158      20.03166406       7.97053766
Si      11.54103969      26.02565617       7.71545335
Si      14.23313405      24.62625448       7.89712502
Si      14.18403025      21.52194130       7.90629023
O       10.17789344      20.70920719       8.57108578
O       10.14000005      25.51600008       8.38099998
O       12.80499988      25.24900001       8.38100002
O       12.83426669      20.83782642       8.53061677
O       11.61625830      18.46443182       8.40591337
O       14.36800006      23.07499993       8.38399995
O       11.54266754      20.17550189       6.34148735
O       11.52927001      25.74455873       6.10768952
O       14.35895303      24.78936965       6.28432558
O       14.11093228      21.43288110       6.27330966
O       11.70165556      27.62646364       7.93172535
Si      16.92130779      16.88906002       7.96359338
O       15.46883505      11.46997588       8.56651031
O       15.46900006      16.28600009       8.38099995
O       18.08574467      16.11037849       8.78465923
O       17.19374252      16.73039542       6.36494943
Si      16.72643831      19.88497517       7.66069110
O       15.46900011      20.63400005       8.38100003
O       15.47209770      25.44970375       8.54849433
O       18.05468675      20.81922015       7.71645405
O       17.03199982      18.45999999       8.38400001
O       16.38148926      19.59140956       6.09288021
H       -0.48121441      15.43427209       9.08940065
H        1.67739854      12.12848195       8.90977730
H        0.33967116      15.97457182       6.03464357
H        3.09463915      15.34748077       5.70175432
H        3.15989904      12.63048549       5.59473791
H       -0.05964535      20.82901184      10.06489723
H        1.67682594      24.78106518       8.90981948
H        0.02514504      21.08212753       6.31756843
H        3.15934848      24.29115825       5.59666540
H        3.06192032      21.57980045       5.71191116
H        6.91641738       9.18606035       9.33247052
H        5.49768656      11.08876034       5.83310636
H        5.55955959      16.40803299       5.99372617
H        8.06818075      15.84052275       6.09506460
H        8.87251929      13.41381819       5.97557560
H        5.53778325      20.48655450       5.96820346
H        5.49866427      25.84926049       5.83752936
H        8.85996364      23.54982598       5.94163044
H        8.06306320      21.08725144       6.04177485
H        6.91946407      27.72520420       9.35042572
H       12.10349875       8.98426320       8.71730203
H       10.74397126      11.69504308       5.80223515
H       10.69100938      16.36888087       5.99097741
H       13.23803878      15.82577782       5.94182302
H       13.53771726      11.97894321       5.82336305
H       10.73290430      20.52062364       5.94067965
H       10.74705684      25.25992043       5.79882670
H       13.52402284      24.95222664       5.82479714
H       13.26511154      21.10424981       5.92866441
H       12.09439994      27.93154789       8.75461897
H       15.84576720      11.81719490       9.37944838
H       17.89939803      15.21332510       9.07478724
H       16.83353278      17.44057544       5.81829031
H       15.82722772      25.13145608       9.38299673
H       18.44451297      21.00154298       8.57648359
H       15.63186826      20.09737219       5.74619501
