32
Properties=species:S:1:pos:R:3 Coordinates=T from=T ORCA-job=T frame_6_ma=T E=T -13336.950646182675=T pbc="F F F"
N        6.83089692      19.52634172      12.06468347
C        5.64878821      18.83329643      11.91625701
N        4.54949950      19.61958513      11.70352118
C        4.50130123      21.00241017      11.60368334
C        5.78547098      21.63139939      11.71715152
C        6.88309545      20.88198177      11.93771048
O        5.58121186      17.61712090      11.96676131
O        3.42688306      21.56383155      11.43143799
C        8.03030615      18.73417583      12.35308815
C        8.79125540      18.28044552      11.12225485
C       10.19870262      18.13619579      11.66962698
C       10.27063837      19.29340398      12.65553900
O       10.37367160      16.93028724      12.39235215
O        8.92571309      19.51525379      13.10417138
C       10.84687496      20.53678889      12.02041918
O       10.97472011      21.56835349      12.98248730
P       10.53457419      23.07753725      12.58443518
O        9.11242801      23.08174545      12.12881356
O       10.98257017      23.92901866      13.71784684
O       11.48641264      23.40652019      11.31155148
H        3.67605071      19.12144011      11.59213251
H        5.85821845      22.70480963      11.62410926
H        7.86228374      21.33795216      12.04157757
H        7.68271268      17.88374050      12.94182589
H        8.40000185      17.35769555      10.70048583
H        8.76258878      19.05518927      10.35390694
H       10.95843554      18.22943870      10.89022028
H       10.86842919      19.01561584      13.52763954
H       10.25308354      16.19687389      11.77906239
H       11.83850723      20.29828344      11.62104209
H       10.21156663      20.85767908      11.19024459
H       11.01867263      23.26600042      10.48049052
