
                                 *****************
                                 * O   R   C   A *
                                 *****************

                                            #,                                       
                                            ###                                      
                                            ####                                     
                                            #####                                    
                                            ######                                   
                                           ########,                                 
                                     ,,################,,,,,                         
                               ,,#################################,,                 
                          ,,##########################################,,             
                       ,#########################################, ''#####,          
                    ,#############################################,,   '####,        
                  ,##################################################,,,,####,       
                ,###########''''           ''''###############################       
              ,#####''   ,,,,##########,,,,          '''####'''          '####       
            ,##' ,,,,###########################,,,                        '##       
           ' ,,###''''                  '''############,,,                           
         ,,##''                                '''############,,,,        ,,,,,,###''
      ,#''                                            '''#######################'''  
     '                                                          ''''####''''         
             ,#######,   #######,   ,#######,      ##                                
            ,#'     '#,  ##    ##  ,#'     '#,    #''#        ,####,    ,#,          
            ##       ##  ##   ,#'  ##            #'  '#       #'       ,# #          
            ##       ##  #######   ##           ,######,      #####,      #          
            '#,     ,#'  ##    ##  '#,     ,#' ,#      #,     #,   #      #          
             '#######'   ##     ##  '#######'  #'      '#     '####' #    #          



                #########################################################
                #                        -***-                          #
                #          Department of theory and spectroscopy        #
                #                                                       #
                #                      Frank Neese                      #
                #                                                       #
                #     Directorship, Architecture, Infrastructure        #
                #                    SHARK, DRIVERS                     #
                #        Core code/Algorithms in most modules           #
                #                                                       #
                #        Max Planck Institute fuer Kohlenforschung      #
                #                Kaiser Wilhelm Platz 1                 #
                #                 D-45470 Muelheim/Ruhr                 #
                #                      Germany                          #
                #                                                       #
                #                  All rights reserved                  #
                #                        -***-                          #
                #########################################################


                         Program Version 6.1.0  -  RELEASE   -
                                (GIT: $679e74b$)
                          ($2025-06-10 18:02:51 +0200$)


 With contributions from (in alphabetic order):
[Max-Planck-Institut fuer Kohlenforschung]                               
  Daniel Aravena         : Magnetic Suceptibility                        
  Michael Atanasov       : Ab Initio Ligand Field Theory (pilot matlab implementation)
  Alexander A. Auer      : GIAO ZORA, VPT2 properties, NMR spectrum      
  Ute Becker             : All parallelization in ORCA, NUMFREQ, NUMCALC 
  Giovanni Bistoni       : ED, misc. LED, open-shell LED, HFLD           
  Dmytro Bykov           : pre 5.0 version of the SCF Hessian            
  Marcos Casanova-Páez   : Triplet and SCS-CIS(D). UHF-(DLPNO)-IP/EA/STEOM-CCSD. UHF-CVS-IP/STEOM-CCSD   
  Vijay G. Chilkuri      : MRCI spin determinant printing, contributions to CSF-ICE 
  Pauline Colinet        : FMM embedding                                 
  Dipayan Datta          : RHF DLPNO-CCSD density                        
  Achintya Kumar Dutta   : EOM-CC, STEOM-CC                              
  Nicolas Foglia         : Exact transition moments, OPA infrastructure, MCD improvements    
  Dmitry Ganyushin       : Spin-Orbit,Spin-Spin,Magnetic field MRCI      
  Miquel Garcia-Rates    : C-PCM and meta-GGA Hessian, CCSD/C-PCM, Gaussian charge scheme 
  Tiago L. C. Gouveia    : GS-ROHF, GS-ROCIS                             
  Yang Guo               : DLPNO-NEVPT2, F12-NEVPT2, CIM, IAO-localization        
  Andreas Hansen         : Spin unrestricted coupled pair/coupled cluster methods 
  Ingolf Harden          : AUTO-CI MPn and infrastructure                
  Benjamin Helmich-Paris : MC-RPA, TRAH-(SCF,CASSCF), AVAS, COSX integrals, SCF dyn. polar., MC-PDFT, srDFT 
  Lee Huntington         : MR-EOM, pCC                                   
  Robert Izsak           : Overlap fitted RIJCOSX, COSX-SCS-MP3, EOM     
  Riya Kayal             : Wick's Theorem for AUTO-CI, AUTO-CI UHF-CCSDT 
  Emily Kempfer          : AUTO-CI RHF CISDT and CCSDT, approximate NEVPT4
  Christian Kollmar      : KDIIS, OOCD, Brueckner-CCSD(T), CCSD density, CASPT2, CASPT2-K, improved NEVPT2 
  Axel Koslowski         : Symmetry handling                             
  Simone Kossmann        : meta-GGA functionals, TD-DFT gradient, OOMP2, (MP2 Hessian; deprecated post 5.0) 
  Lucas Lang             : DCDCAS, Hyperfine gauge corrections, ICE-SOC+SSC
  Marvin Lechner         : AUTO-CI (C++ implementation), FIC-MRCC        
  Spencer Leger          : CASSCF response                               
  Dagmar Lenk            : GEPOL surface, SMD, ORCA-2-JSON               
  Dimitrios Liakos       : Extrapolation schemes; Compound Job, Property file
  Dimitrios Manganas     : Further ROCIS development; embedding schemes. LFT, Crystal Embedding 
  Dimitrios Pantazis     : SARC Basis sets                               
  Anastasios Papadopoulos: AUTO-CI, single reference methods and gradients 
  Taras Petrenko         : pre 6.0 DFT Hessian and TD-DFT gradient,  ECA, NRVS 
  Petra Pikulova         : Analytic Raman intensities                    
  Peter Pinski           : DLPNO-MP2, DLPNO-MP2 Gradient                 
  Shashank Vittal Rao    : ES-AILFT, MagRelax                            
  Christoph Reimann      : Effective Core Potentials                     
  Marius Retegan         : Local ZFS, SOC                                
  Christoph Riplinger    : Optimizer, TS searches, QM/MM, DLPNO-CCSD(T), (RO)-DLPNO pert. Triples 
  Michael Roemelt        : Original ROCIS implementation, recursive CI coupling coefficients
  Masaaki Saitow         : Open-shell DLPNO-CCSD energy and density      
  Barbara Sandhoefer     : DKH picture change effects                    
  Yorick L. A. Schmerwitz: GMF and freeze-and-release deltaSCF, NEB S-IDPP initial path                    
  Kantharuban Sivalingam : CASSCF convergence/infrastructure, NEVPT2, NEVPT3, NEVPT4(SD), FIC-MRCI and CEPA variants
  Bernardo de Souza      : ESD, SOC TD-DFT                               
  Georgi L. Stoychev     : AutoAux, RI-MP2 NMR, DLPNO-MP2 response, X2C  
  Van Anh Tran           : RI-MP2 g-tensors                              
  Willem Van den Heuvel  : Paramagnetic NMR                              
  Zikuan Wang            : NOTCH, Electric field optimization            
  Frank Wennmohs         : Technical directorship and infrastructure     
  Hang Xu                : AUTO-CI-Response properties                   
                                                                         
[FACCTs GmbH]                                                            
  Markus Bursch, Nicolas Foglia, Miquel Garcia-Rates, Ingolf Harden, Hagen Neugebauer, Anastasios Papadopoulos, 
  Christoph Riplinger, Bernardo de Souza, Georgi L. Stoychev                                                    
                                                                 
  APM, various basis sets, CI-OPT, improved COSX, DLPNO-Multilevel,           
  DOCKER, DRACO, updates on ESD, Fragmentator, GOAT, IRC, LR-CPCM, L-BFGS, MBIS, meta-GGA TD-DFT gradient, ML-optimized integration grids, 
  MM, NACMEs, nearIR, NEB, NEB-TS, NL-DFT gradient (VV10), 2- and 3-layer-ONIOM, interface openCOSMO-RS, QMMM,   
  Crystal-QMMM, RESP, rigid body optimization, SF, symmetry and pop. for TD-DFT, various functionals, SOLVATOR                                   
                                                                         
[Other institutions]                                                     
  V. Asgeirsson          : NEB                                           
  Christoph Bannwarth    : sTDA-DFT, sTD-DFT, PBEh-3c, B97-3c, D3        
  Giovanni Bistoni       : ETS/NOCV, ADLD/ADEX, COVALED                  
  Martin Brehm           : Molecular dynamics                            
  Ronald Cardenas        : ETS/NOCV                                      
  Martina Colucci        : COVALED                                       
  Sebastian Ehlert       : rSCAN, r2SCAN, r2SCAN-3c, D4, dhf basis sets  
  Marvin Friede          : D4 for Fr, Ra, Ac-Lr                          
  Lars Goerigk           : TD-DFT with DH, B97 family of functionals     
  Stefan Grimme          : VdW corrections, initial TS optimization, DFT functionals, gCP, sTDA/sTD-DF 
  Waldemar Hujo          : DFT-NL                                        
  H. Jonsson             : NEB                                           
  Holger Kruse           : gCP                                           
  Marcel Mueller         : wB97X-3c, vDZP basis set                      
  Hagen Neugebauer       : wr2SCAN, Native XTB                           
  Gianluca Regni         : ADLD/ADEX                                     
  Tobias Risthaus        : pre 6.0 range-separated hybrid DFT and stability analysis
  Lukas Wittmann         : regularized MP2, r2SCAN double-hybrids, wr2SCAN        
                                                                         
We gratefully acknowledge several colleagues who have allowed us to      
interface, adapt or use parts of their codes:                            
  Ed Valeev, F. Pavosevic, A. Kumar             : LibInt (2-el integral package), F12 methods 
  Garnet Chan, S. Sharma, J. Yang, R. Olivares  : DMRG                   
  Ulf Ekstrom                                   : XCFun DFT Library      
  Mihaly Kallay                                 : mrcc  (arbitrary order and MRCC methods)
  Frank Weinhold                                : gennbo (NPA and NBO analysis)           
  Simon Mueller                                 : openCOSMO-RS                            
  Christopher J. Cramer and Donald G. Truhlar   : smd solvation model                     
  S Lehtola, MJT Oliveira, MAL Marques          : LibXC Library                           
  Liviu Ungur et al                             : ANISO software                          


 Your calculation uses the libint2 library for the computation of 2-el integrals
 For citations please refer to: http://libint.valeyev.net

 Your ORCA version has been built with support for libXC version: 7.0.0
 For citations please refer to: https://libxc.gitlab.io

 This ORCA versions uses:
   CBLAS   interface :  Fast vector & matrix operations
   LAPACKE interface :  Fast linear algebra routines
   SCALAPACK package :  Parallel linear algebra routines
   Shared memory     :  Shared parallel matrices
   BLAS/LAPACK       :  OpenBLAS 0.3.29  USE64BITINT DYNAMIC_ARCH NO_AFFINITY Haswell SINGLE_THREADED
        Core in use  :  Haswell
   Copyright (c) 2011-2014, The OpenBLAS Project


  ***********************************
  * Starting time: Tue Oct 28 10:33:56 2025
  * Host name:     DESKTOP-VDPDGSO
  * Process ID:    16192
  * Working dir.:  /mnt/d/seafile/test_orca/flower_ump/hpc/frame_6_ma3/esp_pbe0
  ***********************************

NOTE: MaxCore=2000 MB was set to SCF,MP2,MDCI,CIPSI,MRCI,RASCI and CIS
      => If you want to overwrite this, your respective input block should be placed after the MaxCore statement


***************************************
The coordinates will be read from file: ump.xyz
***************************************


Your calculation utilizes the atom-pairwise dispersion correction
with the Becke-Johnson damping scheme (D3BJ)


Warning: RI is on but no J-basis has been assigned. Assigning Def2/J (nothing to worry about!)
================================================================================

----- Orbital basis set information -----
Your calculation utilizes the basis: def2-TZVP
   F. Weigend and R. Ahlrichs, Phys. Chem. Chem. Phys. 7, 3297 (2005).

----- AuxJ basis set information -----
Your calculation utilizes the auxiliary basis: def2/J
   H-Rn: F. Weigend, Phys. Chem. Chem. Phys. 8, 1057 (2006).
   Fr-Lr: K. Eichkorn, F. Weigend, O. Treutler, R. Ahlrichs; Theor. Chem. Acc. 97, 119 (1997).

================================================================================
                                        WARNINGS
                       Please study these warnings very carefully!
================================================================================


================================================================================
                                       INPUT FILE
================================================================================
NAME = ump_esp.inp
|  1> ! SP PBE0 D3BJ def2-TZVP TightSCF
|  2> 
|  3> %pal nprocs 10 end
|  4> 
|  5> %maxcore 2000
|  6> 
|  7> * xyzfile -1 1 ump.xyz
|  8> 
|  9>                          ****END OF INPUT****
================================================================================

                       ****************************
                       * Single Point Calculation *
                       ****************************

---------------------------------
CARTESIAN COORDINATES (ANGSTROEM)
---------------------------------
  N      6.830897   19.526342   12.064683
  C      5.648788   18.833296   11.916257
  N      4.549499   19.619585   11.703521
  C      4.501301   21.002410   11.603683
  C      5.785471   21.631399   11.717152
  C      6.883095   20.881982   11.937710
  O      5.581212   17.617121   11.966761
  O      3.426883   21.563832   11.431438
  C      8.030306   18.734176   12.353088
  C      8.791255   18.280446   11.122255
  C     10.198703   18.136196   11.669627
  C     10.270638   19.293404   12.655539
  O     10.373672   16.930287   12.392352
  O      8.925713   19.515254   13.104171
  C     10.846875   20.536789   12.020419
  O     10.974720   21.568353   12.982487
  P     10.534574   23.077537   12.584435
  O      9.112428   23.081745   12.128814
  O     10.982570   23.929019   13.717847
  O     11.486413   23.406520   11.311551
  H      3.676051   19.121440   11.592133
  H      5.858218   22.704810   11.624109
  H      7.862284   21.337952   12.041578
  H      7.682713   17.883740   12.941826
  H      8.400002   17.357696   10.700486
  H      8.762589   19.055189   10.353907
  H     10.958436   18.229439   10.890220
  H     10.868429   19.015616   13.527640
  H     10.253084   16.196874   11.779062
  H     11.838507   20.298283   11.621042
  H     10.211567   20.857679   11.190245
  H     11.018673   23.266000   10.480491

----------------------------
CARTESIAN COORDINATES (A.U.)
----------------------------
  NO LB      ZA    FRAG     MASS         X           Y           Z
   0 N     7.0000    0    14.007   12.908524   36.899438   22.798948
   1 C     6.0000    0    12.011   10.674663   35.589772   22.518462
   2 N     7.0000    0    14.007    8.597308   37.075643   22.116450
   3 C     6.0000    0    12.011    8.506227   39.688803   21.927784
   4 C     6.0000    0    12.011   10.932956   40.877421   22.142207
   5 C     6.0000    0    12.011   13.007165   39.461227   22.559003
   6 O     8.0000    0    15.999   10.546962   33.291534   22.613902
   7 O     8.0000    0    15.999    6.475870   40.749736   21.602287
   8 C     6.0000    0    12.011   15.175079   35.402462   23.343954
   9 C     6.0000    0    12.011   16.613065   34.545036   21.018016
  10 C     6.0000    0    12.011   19.272755   34.272443   22.052399
  11 C     6.0000    0    12.011   19.408694   36.459250   23.915503
  12 O     8.0000    0    15.999   19.603398   31.993606   23.418152
  13 O     8.0000    0    15.999   16.867153   36.878485   24.763295
  14 C     6.0000    0    12.011   20.497623   38.808907   22.715300
  15 O     8.0000    0    15.999   20.739215   40.758281   24.533346
  16 P    15.0000    0    30.974   19.907460   43.610225   23.781136
  17 O     8.0000    0    15.999   17.219993   43.618178   22.920136
  18 O     8.0000    0    15.999   20.754050   45.219292   25.922974
  19 O     8.0000    0    15.999   21.706174   44.231913   21.375734
  20 H     1.0000    0     1.008    6.946729   36.134285   21.905956
  21 H     1.0000    0     1.008   11.070429   42.905872   21.966383
  22 H     1.0000    0     1.008   14.857563   40.322886   22.755284
  23 H     1.0000    0     1.008   14.518223   33.795372   24.456507
  24 H     1.0000    0     1.008   15.873703   32.801291   20.220988
  25 H     1.0000    0     1.008   16.558893   36.009089   19.566049
  26 H     1.0000    0     1.008   20.708442   34.448647   20.579534
  27 H     1.0000    0     1.008   20.538355   35.934306   25.563534
  28 H     1.0000    0     1.008   19.375520   30.607656   22.259202
  29 H     1.0000    0     1.008   22.371536   38.358197   21.960587
  30 H     1.0000    0     1.008   19.297064   39.415301   21.146498
  31 H     1.0000    0     1.008   20.822274   43.966369   19.805257

--------------------------------
INTERNAL COORDINATES (ANGSTROEM)
--------------------------------
 N      0   0   0     0.000000000000     0.00000000     0.00000000
 C      1   0   0     1.378304462112     0.00000000     0.00000000
 N      2   1   0     1.368189358622   114.63696654     0.00000000
 C      3   2   1     1.387261964727   127.73135313     1.03607472
 C      4   3   2     1.434431738900   113.59658388     1.34147065
 C      5   4   3     1.347238843392   119.89481395   358.24534507
 O      2   1   3     1.219098095794   123.00408695   179.86480587
 O      4   3   2     1.224433269127   119.84527372   181.16012307
 C      1   2   3     1.466044527883   116.81791389   177.41837442
 C      9   1   2     1.516530767138   114.36280460    90.45080861
 C     10   9   1     1.517014143109   101.60312584   153.47805051
 C     11  10   9     1.521948769937   101.84653565   323.51629133
 O     11  10   9     1.416743182894   112.30797147    78.94720355
 O      9   1   2     1.405689292193   109.02646892   209.24206239
 C     12  11  10     1.510440938212   111.81152904   266.99239858
 O     15  12  11     1.416349170887   110.38765906   183.50006701
 P     16  15  12     1.621668752420   119.11592418   223.27241932
 O     17  16  15     1.493354789341   109.63244790    56.46070697
 O     17  16  15     1.486722227148   105.31259360   188.36006084
 O     17  16  15     1.623101698427   102.82403752   301.11033508
 H      3   2   1     1.011666291574   115.32999880   179.93879610
 H      5   4   3     1.079888234899   119.29830822   178.25562499
 H      6   5   4     1.085129981253   121.13856562   180.91758572
 H      9   1   2     1.091179910647   105.46534873   327.73206698
 H     10   9   1     1.087398709653   112.83924631   274.93764891
 H     10   9   1     1.091516451579   110.22918375    36.60981356
 H     11  10   9     1.092411622971   112.31390163   204.26956059
 H     12  11  10     1.093196902241   110.45172751   144.61394673
 H     13  11  10     0.963618675563   107.92147980    63.68866418
 H     15  12  11     1.095317976024   108.63005964   302.88490732
 H     15  12  11     1.093515906646   109.82477819    61.09633412
 H     20  17  16     0.963944418497   111.22403707    98.05142087

---------------------------
INTERNAL COORDINATES (A.U.)
---------------------------
 N      0   0   0     0.000000000000     0.00000000     0.00000000
 C      1   0   0     2.604617962553     0.00000000     0.00000000
 N      2   1   0     2.585503187141   114.63696654     0.00000000
 C      3   2   1     2.621545189339   127.73135313     1.03607472
 C      4   3   2     2.710683144326   113.59658388     1.34147065
 C      5   4   3     2.545912450993   119.89481395   358.24534507
 O      2   1   3     2.303761531436   123.00408695   179.86480587
 O      4   3   2     2.313843547911   119.84527372   181.16012307
 C      1   2   3     2.770422657832   116.81791389   177.41837442
 C      9   1   2     2.865827823557   114.36280460    90.45080861
 C     10   9   1     2.866741271760   101.60312584   153.47805051
 C     11  10   9     2.876066365039   101.84653565   323.51629133
 O     11  10   9     2.677256617770   112.30797147    78.94720355
 O      9   1   2     2.656367791630   109.02646892   209.24206239
 C     12  11  10     2.854319714684   111.81152904   266.99239858
 O     15  12  11     2.676512042983   110.38765906   183.50006701
 P     16  15  12     3.064509822012   119.11592418   223.27241932
 O     17  16  15     2.822031572634   109.63244790    56.46070697
 O     17  16  15     2.809497846523   105.31259360   188.36006084
 O     17  16  15     3.067217697529   102.82403752   301.11033508
 H      3   2   1     1.911772229995   115.32999880   179.93879610
 H      5   4   3     2.040693019204   119.29830822   178.25562499
 H      6   5   4     2.050598484276   121.13856562   180.91758572
 H      9   1   2     2.062031193959   105.46534873   327.73206698
 H     10   9   1     2.054885759623   112.83924631   274.93764891
 H     10   9   1     2.062667164154   110.22918375    36.60981356
 H     11  10   9     2.064358792927   112.31390163   204.26956059
 H     12  11  10     2.065842755686   110.45172751   144.61394673
 H     13  11  10     1.820975394346   107.92147980    63.68866418
 H     15  12  11     2.069851004247   108.63005964   302.88490732
 H     15  12  11     2.066445586647   109.82477819    61.09633412
 H     20  17  16     1.821590959282   111.22403707    98.05142087

---------------------
BASIS SET INFORMATION
---------------------
There are 5 groups of distinct atoms

 Group   1 Type N   : 11s6p2d1f contracted to 5s3p2d1f pattern {62111/411/11/1}
 Group   2 Type C   : 11s6p2d1f contracted to 5s3p2d1f pattern {62111/411/11/1}
 Group   3 Type O   : 11s6p2d1f contracted to 5s3p2d1f pattern {62111/411/11/1}
 Group   4 Type P   : 14s9p3d1f contracted to 5s5p2d1f pattern {73211/51111/21/1}
 Group   5 Type H   : 5s1p contracted to 3s1p pattern {311/1}

Atom   0N    basis set group =>   1
Atom   1C    basis set group =>   2
Atom   2N    basis set group =>   1
Atom   3C    basis set group =>   2
Atom   4C    basis set group =>   2
Atom   5C    basis set group =>   2
Atom   6O    basis set group =>   3
Atom   7O    basis set group =>   3
Atom   8C    basis set group =>   2
Atom   9C    basis set group =>   2
Atom  10C    basis set group =>   2
Atom  11C    basis set group =>   2
Atom  12O    basis set group =>   3
Atom  13O    basis set group =>   3
Atom  14C    basis set group =>   2
Atom  15O    basis set group =>   3
Atom  16P    basis set group =>   4
Atom  17O    basis set group =>   3
Atom  18O    basis set group =>   3
Atom  19O    basis set group =>   3
Atom  20H    basis set group =>   5
Atom  21H    basis set group =>   5
Atom  22H    basis set group =>   5
Atom  23H    basis set group =>   5
Atom  24H    basis set group =>   5
Atom  25H    basis set group =>   5
Atom  26H    basis set group =>   5
Atom  27H    basis set group =>   5
Atom  28H    basis set group =>   5
Atom  29H    basis set group =>   5
Atom  30H    basis set group =>   5
Atom  31H    basis set group =>   5
---------------------------------
AUXILIARY/J BASIS SET INFORMATION
---------------------------------
There are 5 groups of distinct atoms

 Group   1 Type N   : 12s5p4d2f1g contracted to 6s4p3d1f1g pattern {711111/2111/211/2/1}
 Group   2 Type C   : 12s5p4d2f1g contracted to 6s4p3d1f1g pattern {711111/2111/211/2/1}
 Group   3 Type O   : 12s5p4d2f1g contracted to 6s4p3d1f1g pattern {711111/2111/211/2/1}
 Group   4 Type P   : 14s5p5d2f1g contracted to 8s4p3d1f1g pattern {71111111/2111/311/2/1}
 Group   5 Type H   : 5s2p1d contracted to 3s1p1d pattern {311/2/1}

Atom   0N    basis set group =>   1
Atom   1C    basis set group =>   2
Atom   2N    basis set group =>   1
Atom   3C    basis set group =>   2
Atom   4C    basis set group =>   2
Atom   5C    basis set group =>   2
Atom   6O    basis set group =>   3
Atom   7O    basis set group =>   3
Atom   8C    basis set group =>   2
Atom   9C    basis set group =>   2
Atom  10C    basis set group =>   2
Atom  11C    basis set group =>   2
Atom  12O    basis set group =>   3
Atom  13O    basis set group =>   3
Atom  14C    basis set group =>   2
Atom  15O    basis set group =>   3
Atom  16P    basis set group =>   4
Atom  17O    basis set group =>   3
Atom  18O    basis set group =>   3
Atom  19O    basis set group =>   3
Atom  20H    basis set group =>   5
Atom  21H    basis set group =>   5
Atom  22H    basis set group =>   5
Atom  23H    basis set group =>   5
Atom  24H    basis set group =>   5
Atom  25H    basis set group =>   5
Atom  26H    basis set group =>   5
Atom  27H    basis set group =>   5
Atom  28H    basis set group =>   5
Atom  29H    basis set group =>   5
Atom  30H    basis set group =>   5
Atom  31H    basis set group =>   5


           ************************************************************
           *        Program running with 10 parallel MPI-processes    *
           *              working on a common directory               *
           ************************************************************
------------------------------------------------------------------------------
                             ORCA STARTUP CALCULATIONS
                           -- RI-GTO INTEGRALS CHOSEN --
------------------------------------------------------------------------------
------------------------------------------------------------------------------
                   ___                                                        
                  /   \      - P O W E R E D   B Y -                         
                 /     \                                                     
                 |  |  |   _    _      __       _____    __    __             
                 |  |  |  | |  | |    /  \     |  _  \  |  |  /  |          
                  \  \/   | |  | |   /    \    | | | |  |  | /  /          
                 / \  \   | |__| |  /  /\  \   | |_| |  |  |/  /          
                |  |  |   |  __  | /  /__\  \  |    /   |      \           
                |  |  |   | |  | | |   __   |  |    \   |  |\   \          
                \     /   | |  | | |  |  |  |  | |\  \  |  | \   \       
                 \___/    |_|  |_| |__|  |__|  |_| \__\ |__|  \__/        
                                                                              
                      - O R C A' S   B I G   F R I E N D -                    
                                      &                                       
                       - I N T E G R A L  F E E D E R -                       
                                                                              
 v1 FN, 2020, v2 2021, v3 2022-2024                                           
------------------------------------------------------------------------------


----------------------
SHARK INTEGRAL PACKAGE
----------------------

Number of atoms                             ...     32
Number of basis functions                   ...    698
Number of shells                            ...    270
Maximum angular momentum                    ...      3
Integral batch strategy                     ... SHARK/LIBINT Hybrid
RI-J (if used) integral strategy            ... SPLIT-RIJ (Revised 2003 algorithm where possible)
Printlevel                                  ...      1
Contraction scheme used                     ... SEGMENTED contraction
Prescreening option                         ... SCHWARTZ
   Thresh                                   ... 2.500e-11
   Tcut                                     ... 2.500e-12
   Tpresel                                  ... 2.500e-12 
Coulomb Range Separation                    ... NOT USED
Exchange Range Separation                   ... NOT USED
Multipole approximations                    ... NOT USED
Finite Nucleus Model                        ... NOT USED
CABS basis                                  ... NOT available
Auxiliary Coulomb fitting basis             ... AVAILABLE
   # of basis functions in Aux-J            ...   1114
   # of shells in Aux-J                     ...    362
   Maximum angular momentum in Aux-J        ...      4
Auxiliary J/K fitting basis                 ... NOT available
Auxiliary Correlation fitting basis         ... NOT available
Auxiliary 'external' fitting basis          ... NOT available

Checking pre-screening integrals            ... done (  0.0 sec) Dimension = 270
   => SHARK Basis and OBASIS are compatible. Storing Pre-screening
Shell pair information
Shell pair cut-off parameter TPreSel        ...   2.5e-12
Total number of shell pairs                 ...     36585
Shell pairs after pre-screening             ...     26190
Total number of primitive shell pairs       ...    115450
Primitive shell pairs kept                  ...     54770
          la=0 lb=0:   6477 shell pairs
          la=1 lb=0:   7569 shell pairs
          la=1 lb=1:   2228 shell pairs
          la=2 lb=0:   3703 shell pairs
          la=2 lb=1:   2200 shell pairs
          la=2 lb=2:    554 shell pairs
          la=3 lb=0:   1760 shell pairs
          la=3 lb=1:   1061 shell pairs
          la=3 lb=2:    510 shell pairs
          la=3 lb=3:    128 shell pairs

Checking whether 4 symmetric matrices of dimension 698 fit in memory
:Max Core in MB      =   2000.00
 MB in use           =     35.53
 MB left             =   1964.47
 MB needed           =      7.44
 Data fit in memory  = YES
Calculating RI/J V-Matrix + Cholesky decomp.... done (  0.2 sec)
Calculating Nuclear repulsion               ... done (  0.0 sec) ENN=   1857.261728743951 Eh

Diagonalization of the overlap matrix:
Smallest eigenvalue                        ... 3.925e-05
Time for diagonalization                   ...    0.046 sec
Threshold for overlap eigenvalues          ... 1.000e-07
Number of eigenvalues below threshold      ... 0
Time for construction of square roots      ...    0.064 sec
Total time needed                          ...    0.145 sec

-------------------
DFT GRID GENERATION
-------------------

General Integration Accuracy     IntAcc      ... 4.388
Radial Grid Type                 RadialGrid  ... OptM3 with GC (2021)
Angular Grid (max. ang.)         AngularGrid ... 4 (Lebedev-302)
Angular grid pruning method      GridPruning ... 4 (adaptive)
Weight generation scheme         WeightScheme... mBecke (2022)
Basis function cutoff            BFCut       ... 1.0000e-11
Integration weight cutoff        WCut        ... 1.0000e-14
Partially contracted basis set               ... off
Rotationally invariant grid construction     ... off
Angular grids for H and He will be reduced by one unit

Total number of grid points                  ...   159241
Total number of batches                      ...     2504
Average number of points per batch           ...       63
Average number of grid points per atom       ...     4976

--------------------
COSX GRID GENERATION
--------------------

GRIDX 1
-------
General Integration Accuracy     IntAcc      ... 3.816
Radial Grid Type                 RadialGrid  ... OptM3 with GC (2021)
Angular Grid (max. ang.)         AngularGrid ... 1 (Lebedev-50)
Angular grid pruning method      GridPruning ... 4 (adaptive)
Weight generation scheme         WeightScheme... mBecke (2022)
Basis function cutoff            BFCut       ... 1.0000e-11
Integration weight cutoff        WCut        ... 1.0000e-14
Partially contracted basis set               ... on
Rotationally invariant grid construction     ... off
Angular grids for H and He will be reduced by one unit

Total number of grid points                  ...    21185
Total number of batches                      ...      186
Average number of points per batch           ...      113
Average number of grid points per atom       ...      662
UseSFitting                                  ... on

GRIDX 2
-------
General Integration Accuracy     IntAcc      ... 4.020
Radial Grid Type                 RadialGrid  ... OptM3 with GC (2021)
Angular Grid (max. ang.)         AngularGrid ... 2 (Lebedev-110)
Angular grid pruning method      GridPruning ... 4 (adaptive)
Weight generation scheme         WeightScheme... mBecke (2022)
Basis function cutoff            BFCut       ... 1.0000e-11
Integration weight cutoff        WCut        ... 1.0000e-14
Partially contracted basis set               ... on
Rotationally invariant grid construction     ... off
Angular grids for H and He will be reduced by one unit

Total number of grid points                  ...    44395
Total number of batches                      ...      365
Average number of points per batch           ...      121
Average number of grid points per atom       ...     1387
UseSFitting                                  ... on

GRIDX 3
-------
General Integration Accuracy     IntAcc      ... 4.338
Radial Grid Type                 RadialGrid  ... OptM3 with GC (2021)
Angular Grid (max. ang.)         AngularGrid ... 3 (Lebedev-194)
Angular grid pruning method      GridPruning ... 4 (adaptive)
Weight generation scheme         WeightScheme... mBecke (2022)
Basis function cutoff            BFCut       ... 1.0000e-11
Integration weight cutoff        WCut        ... 1.0000e-14
Partially contracted basis set               ... on
Rotationally invariant grid construction     ... off
Angular grids for H and He will be reduced by one unit

Total number of grid points                  ...    97838
Total number of batches                      ...      778
Average number of points per batch           ...      125
Average number of grid points per atom       ...     3057
UseSFitting                                  ... on
Grids setup in   2.9 sec
Initializing property integral containers    ... done (  0.1 sec)

SHARK setup successfully completed in   4.3 seconds

Maximum memory used throughout the entire STARTUP-calculation: 68.0 MB


           ************************************************************
           *        Program running with 10 parallel MPI-processes    *
           *              working on a common directory               *
           ************************************************************
-------------------------------------------------------------------------------
                                 ORCA GUESS
                   Start orbitals & Density for SCF / CASSCF
-------------------------------------------------------------------------------

------------
SCF SETTINGS
------------
Hamiltonian:
 Density Functional     Method          .... DFT(GTOs)
 Exchange Functional    Exchange        .... PBE
   PBE kappa parameter   XKappa         ....  0.804000
   PBE mue parameter    XMuePBE         ....  0.219520
 Correlation Functional Correlation     .... PBE
   PBE beta parameter  CBetaPBE         ....  0.066725
 LDA part of GGA corr.  LDAOpt          .... PW91-LDA
 Gradients option       PostSCFGGA      .... off
 Hybrid DFT is turned on
   Fraction HF Exchange ScalHFX         ....  0.250000
   Scaling of DF-GGA-X  ScalDFX         ....  0.750000
   Scaling of DF-GGA-C  ScalDFC         ....  1.000000
   Scaling of DF-LDA-C  ScalLDAC        ....  1.000000
   Perturbative correction              ....  0.000000
   NL short-range parameter             ....  6.900000
 RI-approximation to the Coulomb term is turned on
   Number of AuxJ basis functions       .... 1114
   RIJ-COSX (HFX calculated with COS-X)).... on


General Settings:
 Integral files         IntName         .... ump_esp
 Hartree-Fock type      HFTyp           .... RHF
 Total Charge           Charge          ....   -1
 Multiplicity           Mult            ....    1
 Number of Electrons    NEL             ....  160
 Basis Dimension        Dim             ....  698
 Nuclear Repulsion      ENuc            ....   1857.2617287440 Eh

Convergence Acceleration:
 AO-DIIS                CNVDIIS         .... on
   Start iteration      DIISMaxIt       ....    12
   Startup error        DIISStart       ....  0.200000
   # of expansion vecs  DIISMaxEq       ....     5
   Bias factor          DIISBfac        ....   1.050
   Max. coefficient     DIISMaxC        ....  10.000
 MO-DIIS                CNVKDIIS        .... off
 Trust-Rad. Augm. Hess. CNVTRAH         .... auto
   Auto Start mean grad. ratio tolernc. ....  1.125000
   Auto Start start iteration           ....    50
   Auto Start num. interpolation iter.  ....    10
   Max. Number of Micro iterations      ....    24
   Max. Number of Macro iterations      .... Maxiter - #DIIS iter
   Number of Davidson start vectors     ....     2
   Converg. threshold    (grad. norm)   ....   1.000e-05
   Grad. Scal. Fac. for Micro threshold ....   0.100
   Minimum threshold for Micro iter.    ....   1.000e-02
   NR start threshold (gradient norm)   ....   1.000e-04
   Initial trust radius                 ....   0.400
   Minimum AH scaling param. (alpha)    ....   1.000
   Maximum AH scaling param. (alpha)    .... 1000.000
   Quad. conv. algorithm                .... NR
   White noise on init. David. guess    .... on
   Maximum white noise                  ....   0.010
   Pseudo random numbers                .... off
   Inactive MOs                         .... canonical
   Orbital update algorithm             .... Taylor
   Preconditioner                       .... Diag
   Full preconditioner red. dimension   ....   250
 SOSCF                 CNVSOSCF           .... on
   Start iteration     SOSCFMaxIt         ....   150
   Startup grad/error  SOSCFStart         ....  0.003300
   Hessian update      SOSCFHessUp        .... L-BFGS
   Autom. constraints  SOSCFAutoConstrain .... off
 Level Shifting         CNVShift        .... on
   Level shift para.    LevelShift      ....    0.2500
   Turn off err/grad.   ShiftErr        ....    0.0010
 Zerner damping         CNVZerner       .... off
 Static damping         CNVDamp         .... on
   Fraction old density DampFac         ....    0.7000
   Max. Damping (<1)    DampMax         ....    0.9800
   Min. Damping (>=0)   DampMin         ....    0.0000
   Turn off err/grad.   DampErr         ....    0.1000

SCF Procedure:
 Maximum # iterations   MaxIter         ....   125
 SCF integral mode      SCFMode         .... Direct
   Integral package                     .... SHARK and LIBINT hybrid scheme
 Reset frequency        DirectResetFreq ....    20
 Integral Threshold     Thresh          ....  2.500e-11 Eh
 Primitive CutOff       TCut            ....  2.500e-12 Eh

Convergence Tolerance:
 Convergence Check Mode ConvCheckMode   .... Total+1el-Energy
 Convergence forced     ConvForced      .... 0
 Energy Change          TolE            ....  1.000e-08 Eh
 1-El. energy change                    ....  1.000e-05 Eh
 Orbital Gradient       TolG            ....  1.000e-05
 Orbital Rotation angle TolX            ....  1.000e-05
 DIIS Error             TolErr          ....  5.000e-07

------------------------------
INITIAL GUESS: MODEL POTENTIAL
------------------------------
Loading Hartree-Fock densities                     ... done
Calculating cut-offs                               ... done
Initializing the effective Hamiltonian             ... done
Setting up the integral package (SHARK)            ... done
Starting the Coulomb interaction                   ... done (   0.2 sec)
Making the grid                                    ... done (   0.4 sec)
Mapping shells                                     ... done
Starting the XC term evaluation                    ... done (   0.1 sec)
  promolecular density results
     # of electrons  =    159.000706559
     EX              =   -150.628905999
     EC              =     -5.521923333
     EX+EC           =   -156.150829332
Transforming the Hamiltonian                       ... done (   0.1 sec)
Diagonalizing the Hamiltonian                      ... done (   0.1 sec)
Back transforming the eigenvectors                 ... done (   0.1 sec)
Now organizing SCF variables                       ... done
                      ------------------
                      INITIAL GUESS DONE (   1.5 sec)
                      ------------------
             **** ENERGY FILE WAS UPDATED (ump_esp.en.tmp) ****
Finished Guess after   2.9 sec
Maximum memory used throughout the entire GUESS-calculation: 52.2 MB


           ************************************************************
           *        Program running with 10 parallel MPI-processes    *
           *              working on a common directory               *
           ************************************************************

-------------------------------------------------------------------------------------------
                                      ORCA LEAN-SCF
                              memory conserving SCF solver
-------------------------------------------------------------------------------------------

----------------------------------------D-I-I-S--------------------------------------------
Iteration    Energy (Eh)           Delta-E    RMSDP     MaxDP     DIISErr   Damp  Time(sec)
-------------------------------------------------------------------------------------------
               ***  Starting incremental Fock matrix formation  ***
    1    -1401.4631483091880000     0.00e+00  5.82e-03  2.53e-01  3.69e-01  0.700   6.5
Warning: op=0 Small HOMO/LUMO gap (   0.095) - skipping pre-diagonalization
         Will do a full diagonalization
    2    -1401.8326451753109723    -3.69e-01  4.66e-03  1.96e-01  1.49e-01  0.700   4.5
                               ***Turning on AO-DIIS***
    3    -1401.9658506154569295    -1.33e-01  1.51e-03  4.37e-02  4.59e-02  0.700   4.3
    4    -1402.0476392566970389    -8.18e-02  1.94e-03  4.96e-02  2.27e-02  0.000   4.7
    5    -1402.2314554234353636    -1.84e-01  9.34e-04  4.04e-02  6.19e-03  0.000   4.7
                              *** Initializing SOSCF ***
---------------------------------------S-O-S-C-F--------------------------------------
Iteration    Energy (Eh)           Delta-E    RMSDP     MaxDP     MaxGrad    Time(sec)
--------------------------------------------------------------------------------------
    6    -1402.2321310964903205    -6.76e-04  3.17e-04  1.26e-02  1.75e-03     4.6
               *** Restarting incremental Fock matrix formation ***
    7    -1402.2321776521180254    -4.66e-05  2.06e-04  7.13e-03  4.91e-04     6.4
    8    -1402.2321689636019073     8.69e-06  6.58e-05  1.94e-03  7.60e-04     5.0
    9    -1402.2321938003369723    -2.48e-05  2.59e-05  8.24e-04  7.07e-05     5.1
   10    -1402.2321932430763809     5.57e-07  1.10e-05  5.19e-04  1.28e-04     5.2
   11    -1402.2321942742528336    -1.03e-06  7.49e-06  3.99e-04  2.84e-05     4.4
   12    -1402.2321942539824704     2.03e-08  3.06e-06  1.76e-04  3.21e-05     4.5
   13    -1402.2321943126348742    -5.87e-08  1.37e-06  4.09e-05  1.84e-06     4.3
                  *** Gradient check signals convergence ***

               *****************************************************
               *                     SUCCESS                       *
               *           SCF CONVERGED AFTER  13 CYCLES          *
               *****************************************************

Recomputing exchange energy using gridx3       ... done (    8.499 sec)
Old exchange energy                            :    -38.325040795 Eh
New exchange energy                            :    -38.325098903 Eh
Exchange energy change after final integration :     -0.000058108 Eh
Total energy after final integration           :  -1402.232252403 Eh
             **** ENERGY FILE WAS UPDATED (ump_esp.en.tmp) ****

----------------
TOTAL SCF ENERGY
----------------

Total Energy       :      -1402.23225240331158 Eh          -38156.67944 eV

Components:
Nuclear Repulsion  :       1857.26172874395070 Eh           50538.66097 eV
Electronic Energy  :      -3259.49392303937157 Eh          -88695.33883 eV
One Electron Energy:      -5640.38851442623127 Eh         -153482.77439 eV
Two Electron Energy:       2380.89459138685970 Eh           64787.43556 eV

Virial components:
Potential Energy   :      -2799.60937097483020 Eh          -76181.24396 eV
Kinetic Energy     :       1397.37711857151839 Eh           38024.56453 eV
Virial Ratio       :          2.00347446209564

DFT components:
N(Alpha)           :       80.000055711408 electrons
N(Beta)            :       80.000055711408 electrons
N(Total)           :      160.000111422817 electrons
E(X)               :     -114.771311562591 Eh       
E(C)               :       -5.556279634998 Eh       
E(XC)              :     -120.327591197589 Eh       

---------------
SCF CONVERGENCE
---------------

  Last Energy change         ...    5.8652e-08  Tolerance :   1.0000e-08
  Last MAX-Density change    ...    4.0945e-05  Tolerance :   1.0000e-07
  Last RMS-Density change    ...    1.3719e-06  Tolerance :   5.0000e-09
  Last DIIS Error            ...    1.7533e-03  Tolerance :   5.0000e-07
  Last Orbital Gradient      ...    1.8441e-06  Tolerance :   1.0000e-05
  Last Orbital Rotation      ...    4.5456e-06  Tolerance :   1.0000e-05


----------------
ORBITAL ENERGIES
----------------

  NO   OCC          E(Eh)            E(eV) 
   0   2.0000     -77.123228     -2098.6297 
   1   2.0000     -19.144961      -520.9609 
   2   2.0000     -19.133132      -520.6390 
   3   2.0000     -19.099629      -519.7273 
   4   2.0000     -19.082931      -519.2729 
   5   2.0000     -19.079255      -519.1729 
   6   2.0000     -19.072225      -518.9816 
   7   2.0000     -18.983303      -516.5619 
   8   2.0000     -18.962591      -515.9983 
   9   2.0000     -14.363727      -390.8569 
  10   2.0000     -14.349973      -390.4826 
  11   2.0000     -10.281861      -279.7837 
  12   2.0000     -10.240516      -278.6586 
  13   2.0000     -10.236496      -278.5492 
  14   2.0000     -10.208774      -277.7949 
  15   2.0000     -10.188389      -277.2402 
  16   2.0000     -10.184224      -277.1268 
  17   2.0000     -10.169565      -276.7279 
  18   2.0000     -10.156844      -276.3818 
  19   2.0000     -10.129375      -275.6343 
  20   2.0000      -6.501267      -176.9085 
  21   2.0000      -4.639959      -126.2597 
  22   2.0000      -4.638386      -126.2169 
  23   2.0000      -4.635352      -126.1343 
  24   2.0000      -1.030065       -28.0295 
  25   2.0000      -1.011227       -27.5169 
  26   2.0000      -0.987379       -26.8680 
  27   2.0000      -0.978462       -26.6253 
  28   2.0000      -0.951558       -25.8932 
  29   2.0000      -0.918366       -24.9900 
  30   2.0000      -0.903732       -24.5918 
  31   2.0000      -0.871966       -23.7274 
  32   2.0000      -0.818703       -22.2780 
  33   2.0000      -0.777024       -21.1439 
  34   2.0000      -0.744411       -20.2565 
  35   2.0000      -0.730953       -19.8902 
  36   2.0000      -0.699926       -19.0460 
  37   2.0000      -0.621568       -16.9137 
  38   2.0000      -0.616780       -16.7834 
  39   2.0000      -0.584627       -15.9085 
  40   2.0000      -0.558752       -15.2044 
  41   2.0000      -0.530006       -14.4222 
  42   2.0000      -0.495130       -13.4732 
  43   2.0000      -0.487121       -13.2552 
  44   2.0000      -0.468569       -12.7504 
  45   2.0000      -0.452009       -12.2998 
  46   2.0000      -0.444388       -12.0924 
  47   2.0000      -0.439879       -11.9697 
  48   2.0000      -0.416767       -11.3408 
  49   2.0000      -0.410096       -11.1593 
  50   2.0000      -0.403652       -10.9839 
  51   2.0000      -0.391012       -10.6400 
  52   2.0000      -0.375231       -10.2106 
  53   2.0000      -0.364518        -9.9191 
  54   2.0000      -0.361037        -9.8243 
  55   2.0000      -0.356144        -9.6912 
  56   2.0000      -0.335753        -9.1363 
  57   2.0000      -0.334586        -9.1045 
  58   2.0000      -0.327266        -8.9054 
  59   2.0000      -0.322418        -8.7735 
  60   2.0000      -0.314053        -8.5458 
  61   2.0000      -0.303994        -8.2721 
  62   2.0000      -0.290154        -7.8955 
  63   2.0000      -0.279973        -7.6184 
  64   2.0000      -0.263962        -7.1828 
  65   2.0000      -0.259194        -7.0530 
  66   2.0000      -0.249488        -6.7889 
  67   2.0000      -0.231156        -6.2901 
  68   2.0000      -0.227621        -6.1939 
  69   2.0000      -0.216052        -5.8791 
  70   2.0000      -0.214747        -5.8436 
  71   2.0000      -0.205584        -5.5942 
  72   2.0000      -0.199341        -5.4243 
  73   2.0000      -0.188502        -5.1294 
  74   2.0000      -0.179993        -4.8979 
  75   2.0000      -0.159424        -4.3381 
  76   2.0000      -0.157396        -4.2830 
  77   2.0000      -0.137635        -3.7452 
  78   2.0000      -0.117855        -3.2070 
  79   2.0000      -0.104837        -2.8528 
  80   0.0000       0.061064         1.6616 
  81   0.0000       0.098059         2.6683 
  82   0.0000       0.102778         2.7967 
  83   0.0000       0.135015         3.6739 
  84   0.0000       0.137338         3.7372 
  85   0.0000       0.157112         4.2752 
  86   0.0000       0.162643         4.4257 
  87   0.0000       0.165410         4.5010 
  88   0.0000       0.175554         4.7771 
  89   0.0000       0.185982         5.0608 
  90   0.0000       0.194852         5.3022 
*Only the first 10 virtual orbitals were printed.

                    ********************************
                    * MULLIKEN POPULATION ANALYSIS *
                    ********************************

-----------------------
MULLIKEN ATOMIC CHARGES
-----------------------
   0 N :    0.037580
   1 C :    0.275399
   2 N :   -0.215427
   3 C :    0.266085
   4 C :   -0.316319
   5 C :   -0.058571
   6 O :   -0.408484
   7 O :   -0.390513
   8 C :    0.099534
   9 C :   -0.316537
  10 C :    0.089195
  11 C :    0.136713
  12 O :   -0.438905
  13 O :   -0.271163
  14 C :   -0.078742
  15 O :   -0.311612
  16 P :    0.774581
  17 O :   -0.647005
  18 O :   -0.628778
  19 O :   -0.506846
  20 H :    0.230030
  21 H :    0.153563
  22 H :    0.261239
  23 H :    0.110368
  24 H :    0.125676
  25 H :    0.115092
  26 H :    0.082006
  27 H :    0.085560
  28 H :    0.296231
  29 H :    0.083540
  30 H :    0.062954
  31 H :    0.303558
Sum of atomic charges:   -1.0000000

--------------------------------
MULLIKEN REDUCED ORBITAL CHARGES
--------------------------------
  0 N s       :     3.409320  s :     3.409320
      pz      :     1.474956  p :     3.460830
      px      :     0.989264
      py      :     0.996609
      dz2     :     0.006662  d :     0.087212
      dxz     :     0.011450
      dyz     :     0.015050
      dx2y2   :     0.022944
      dxy     :     0.031105
      f0      :     0.000847  f :     0.005059
      f+1     :     0.000625
      f-1     :     0.000610
      f+2     :     0.000456
      f-2     :     0.000507
      f+3     :     0.001273
      f-3     :     0.000740

  1 C s       :     3.010448  s :     3.010448
      pz      :     0.822148  p :     2.391614
      px      :     0.795411
      py      :     0.774055
      dz2     :     0.009804  d :     0.297034
      dxz     :     0.038539
      dyz     :     0.077656
      dx2y2   :     0.044755
      dxy     :     0.126280
      f0      :     0.003017  f :     0.025504
      f+1     :     0.001481
      f-1     :     0.001804
      f+2     :     0.003377
      f-2     :     0.002779
      f+3     :     0.009475
      f-3     :     0.003570

  2 N s       :     3.428214  s :     3.428214
      pz      :     1.560657  p :     3.726959
      px      :     1.088969
      py      :     1.077333
      dz2     :     0.006138  d :     0.055868
      dxz     :     0.004746
      dyz     :     0.009899
      dx2y2   :     0.015638
      dxy     :     0.019447
      f0      :     0.000800  f :     0.004386
      f+1     :     0.000634
      f-1     :     0.000666
      f+2     :     0.000307
      f-2     :     0.000294
      f+3     :     0.000877
      f-3     :     0.000808

  3 C s       :     3.018931  s :     3.018931
      pz      :     0.792484  p :     2.440649
      px      :     0.870911
      py      :     0.777255
      dz2     :     0.011041  d :     0.252880
      dxz     :     0.054196
      dyz     :     0.039488
      dx2y2   :     0.085035
      dxy     :     0.063120
      f0      :     0.002553  f :     0.021455
      f+1     :     0.001536
      f-1     :     0.001252
      f+2     :     0.002974
      f-2     :     0.001856
      f+3     :     0.008179
      f-3     :     0.003105

  4 C s       :     3.258448  s :     3.258448
      pz      :     1.082901  p :     2.979756
      px      :     0.907786
      py      :     0.989069
      dz2     :     0.005341  d :     0.070860
      dxz     :     0.012410
      dyz     :     0.007590
      dx2y2   :     0.031091
      dxy     :     0.014428
      f0      :     0.001443  f :     0.007255
      f+1     :     0.000885
      f-1     :     0.000817
      f+2     :     0.000392
      f-2     :     0.000607
      f+3     :     0.002062
      f-3     :     0.001050

  5 C s       :     3.199681  s :     3.199681
      pz      :     0.850723  p :     2.722844
      px      :     1.086557
      py      :     0.785565
      dz2     :     0.006070  d :     0.125240
      dxz     :     0.013791
      dyz     :     0.035723
      dx2y2   :     0.041921
      dxy     :     0.027735
      f0      :     0.001773  f :     0.010806
      f+1     :     0.000779
      f-1     :     0.001187
      f+2     :     0.001883
      f-2     :     0.000608
      f+3     :     0.002966
      f-3     :     0.001609

  6 O s       :     3.814324  s :     3.814324
      pz      :     1.496150  p :     4.561210
      px      :     1.753084
      py      :     1.311976
      dz2     :     0.002970  d :     0.031081
      dxz     :     0.000258
      dyz     :     0.010624
      dx2y2   :     0.009366
      dxy     :     0.007863
      f0      :     0.000209  f :     0.001870
      f+1     :     0.000027
      f-1     :     0.000210
      f+2     :     0.000427
      f-2     :     0.000022
      f+3     :     0.000524
      f-3     :     0.000450

  7 O s       :     3.801817  s :     3.801817
      pz      :     1.445233  p :     4.555708
      px      :     1.423678
      py      :     1.686797
      dz2     :     0.003147  d :     0.031159
      dxz     :     0.008271
      dyz     :     0.002666
      dx2y2   :     0.008347
      dxy     :     0.008728
      f0      :     0.000168  f :     0.001829
      f+1     :     0.000179
      f-1     :     0.000068
      f+2     :     0.000158
      f-2     :     0.000302
      f+3     :     0.000510
      f-3     :     0.000444

  8 C s       :     3.146670  s :     3.146670
      pz      :     0.914517  p :     2.533442
      px      :     0.770189
      py      :     0.848736
      dz2     :     0.035553  d :     0.204223
      dxz     :     0.047060
      dyz     :     0.039605
      dx2y2   :     0.041736
      dxy     :     0.040269
      f0      :     0.001882  f :     0.016132
      f+1     :     0.002673
      f-1     :     0.001620
      f+2     :     0.002299
      f-2     :     0.002861
      f+3     :     0.002636
      f-3     :     0.002160

  9 C s       :     3.195745  s :     3.195745
      pz      :     1.003528  p :     3.031639
      px      :     0.948475
      py      :     1.079636
      dz2     :     0.012801  d :     0.083175
      dxz     :     0.021865
      dyz     :     0.019649
      dx2y2   :     0.014444
      dxy     :     0.014416
      f0      :     0.000639  f :     0.005978
      f+1     :     0.001048
      f-1     :     0.000707
      f+2     :     0.001468
      f-2     :     0.000915
      f+3     :     0.000589
      f-3     :     0.000613

 10 C s       :     3.147811  s :     3.147811
      pz      :     0.876564  p :     2.586905
      px      :     0.942653
      py      :     0.767688
      dz2     :     0.026859  d :     0.163386
      dxz     :     0.035828
      dyz     :     0.035072
      dx2y2   :     0.027593
      dxy     :     0.038034
      f0      :     0.000732  f :     0.012704
      f+1     :     0.000983
      f-1     :     0.002611
      f+2     :     0.002460
      f-2     :     0.002115
      f+3     :     0.002063
      f-3     :     0.001740

 11 C s       :     3.080782  s :     3.080782
      pz      :     0.903293  p :     2.602412
      px      :     0.736258
      py      :     0.962861
      dz2     :     0.018222  d :     0.167456
      dxz     :     0.043870
      dyz     :     0.027388
      dx2y2   :     0.034306
      dxy     :     0.043671
      f0      :     0.000748  f :     0.012636
      f+1     :     0.001903
      f-1     :     0.001413
      f+2     :     0.002238
      f-2     :     0.001592
      f+3     :     0.001960
      f-3     :     0.002782

 12 O s       :     3.784910  s :     3.784910
      pz      :     1.525734  p :     4.621823
      px      :     1.872911
      py      :     1.223178
      dz2     :     0.004459  d :     0.030549
      dxz     :     0.003367
      dyz     :     0.015259
      dx2y2   :     0.004180
      dxy     :     0.003284
      f0      :     0.000056  f :     0.001623
      f+1     :     0.000035
      f-1     :     0.000237
      f+2     :     0.000523
      f-2     :     0.000160
      f+3     :     0.000220
      f-3     :     0.000391

 13 O s       :     3.784007  s :     3.784007
      pz      :     1.630655  p :     4.445696
      px      :     1.191784
      py      :     1.623257
      dz2     :     0.005386  d :     0.039494
      dxz     :     0.011802
      dyz     :     0.005952
      dx2y2   :     0.007101
      dxy     :     0.009252
      f0      :     0.000208  f :     0.001966
      f+1     :     0.000254
      f-1     :     0.000155
      f+2     :     0.000304
      f-2     :     0.000385
      f+3     :     0.000364
      f-3     :     0.000295

 14 C s       :     3.189220  s :     3.189220
      pz      :     0.877041  p :     2.731865
      px      :     0.999635
      py      :     0.855189
      dz2     :     0.033151  d :     0.147185
      dxz     :     0.032149
      dyz     :     0.025965
      dx2y2   :     0.024246
      dxy     :     0.031674
      f0      :     0.001133  f :     0.010473
      f+1     :     0.000492
      f-1     :     0.002605
      f+2     :     0.001807
      f-2     :     0.002291
      f+3     :     0.001137
      f-3     :     0.001008

 15 O s       :     3.735340  s :     3.735340
      pz      :     1.517320  p :     4.542380
      px      :     1.759726
      py      :     1.265334
      dz2     :     0.006491  d :     0.032248
      dxz     :     0.004068
      dyz     :     0.011305
      dx2y2   :     0.004882
      dxy     :     0.005502
      f0      :     0.000127  f :     0.001644
      f+1     :     0.000061
      f-1     :     0.000246
      f+2     :     0.000393
      f-2     :     0.000184
      f+3     :     0.000303
      f-3     :     0.000329

 16 P s       :     5.035310  s :     5.035310
      pz      :     2.670813  p :     8.052024
      px      :     2.691656
      py      :     2.689555
      dz2     :     0.199556  d :     0.987232
      dxz     :     0.226799
      dyz     :     0.170629
      dx2y2   :     0.190976
      dxy     :     0.199271
      f0      :     0.023148  f :     0.150853
      f+1     :     0.024193
      f-1     :     0.013851
      f+2     :     0.024975
      f-2     :     0.021816
      f+3     :     0.016409
      f-3     :     0.026463

 17 O s       :     3.809361  s :     3.809361
      pz      :     1.688869  p :     4.814133
      px      :     1.435977
      py      :     1.689287
      dz2     :     0.002714  d :     0.022341
      dxz     :     0.006692
      dyz     :     0.000708
      dx2y2   :     0.005922
      dxy     :     0.006304
      f0      :     0.000110  f :     0.001171
      f+1     :     0.000235
      f-1     :     0.000011
      f+2     :     0.000230
      f-2     :     0.000077
      f+3     :     0.000236
      f-3     :     0.000271

 18 O s       :     3.795076  s :     3.795076
      pz      :     1.543434  p :     4.807297
      px      :     1.668918
      py      :     1.594944
      dz2     :     0.006836  d :     0.025154
      dxz     :     0.005065
      dyz     :     0.006773
      dx2y2   :     0.003129
      dxy     :     0.003352
      f0      :     0.000219  f :     0.001251
      f+1     :     0.000148
      f-1     :     0.000290
      f+2     :     0.000232
      f-2     :     0.000227
      f+3     :     0.000066
      f-3     :     0.000069

 19 O s       :     3.746202  s :     3.746202
      pz      :     1.280806  p :     4.735523
      px      :     1.640244
      py      :     1.814473
      dz2     :     0.003111  d :     0.023861
      dxz     :     0.010313
      dyz     :     0.002386
      dx2y2   :     0.004136
      dxy     :     0.003915
      f0      :     0.000243  f :     0.001261
      f+1     :     0.000453
      f-1     :     0.000173
      f+2     :     0.000155
      f-2     :     0.000097
      f+3     :     0.000066
      f-3     :     0.000073

 20 H s       :     0.733393  s :     0.733393
      pz      :     0.010963  p :     0.036577
      px      :     0.016825
      py      :     0.008788

 21 H s       :     0.823216  s :     0.823216
      pz      :     0.005601  p :     0.023221
      px      :     0.003331
      py      :     0.014288

 22 H s       :     0.711262  s :     0.711262
      pz      :     0.003956  p :     0.027500
      px      :     0.016086
      py      :     0.007458

 23 H s       :     0.867375  s :     0.867375
      pz      :     0.006441  p :     0.022257
      px      :     0.005126
      py      :     0.010690

 24 H s       :     0.852374  s :     0.852374
      pz      :     0.005784  p :     0.021950
      px      :     0.006022
      py      :     0.010143

 25 H s       :     0.863037  s :     0.863037
      pz      :     0.009040  p :     0.021872
      px      :     0.004352
      py      :     0.008481

 26 H s       :     0.896872  s :     0.896872
      pz      :     0.008742  p :     0.021123
      px      :     0.008969
      py      :     0.003412

 27 H s       :     0.893066  s :     0.893066
      pz      :     0.010673  p :     0.021375
      px      :     0.006107
      py      :     0.004594

 28 H s       :     0.655938  s :     0.655938
      pz      :     0.014342  p :     0.047831
      px      :     0.017160
      py      :     0.016329

 29 H s       :     0.895872  s :     0.895872
      pz      :     0.005069  p :     0.020589
      px      :     0.011562
      py      :     0.003957

 30 H s       :     0.915571  s :     0.915571
      pz      :     0.009017  p :     0.021475
      px      :     0.007333
      py      :     0.005125

 31 H s       :     0.647553  s :     0.647553
      pz      :     0.017933  p :     0.048888
      px      :     0.014389
      py      :     0.016567



                     *******************************
                     * LOEWDIN POPULATION ANALYSIS *
                     *******************************

----------------------
LOEWDIN ATOMIC CHARGES
----------------------
   0 N :    0.264154
   1 C :   -0.490589
   2 N :    0.209317
   3 C :   -0.445840
   4 C :   -0.155139
   5 C :   -0.125982
   6 O :    0.039393
   7 O :    0.042541
   8 C :   -0.304446
   9 C :   -0.222186
  10 C :   -0.336814
  11 C :   -0.282777
  12 O :   -0.002251
  13 O :    0.236494
  14 C :   -0.340066
  15 O :    0.057203
  16 P :   -0.081493
  17 O :   -0.367967
  18 O :   -0.347267
  19 O :   -0.175847
  20 H :    0.203145
  21 H :    0.163994
  22 H :    0.169053
  23 H :    0.150331
  24 H :    0.140702
  25 H :    0.149523
  26 H :    0.135833
  27 H :    0.153135
  28 H :    0.168231
  29 H :    0.123528
  30 H :    0.119009
  31 H :    0.153082

-------------------------------
LOEWDIN REDUCED ORBITAL CHARGES
-------------------------------
  0 N s       :     2.861758  s :     2.861758
      pz      :     1.287196  p :     3.555091
      px      :     1.117504
      py      :     1.150391
      dz2     :     0.021616  d :     0.298529
      dxz     :     0.034057
      dyz     :     0.045996
      dx2y2   :     0.084886
      dxy     :     0.111975
      f0      :     0.001870  f :     0.020468
      f+1     :     0.001812
      f-1     :     0.002036
      f+2     :     0.002447
      f-2     :     0.002325
      f+3     :     0.007306
      f-3     :     0.002673

  1 C s       :     2.709344  s :     2.709344
      pz      :     0.792923  p :     2.644638
      px      :     0.895866
      py      :     0.955850
      dz2     :     0.068470  d :     0.984620
      dxz     :     0.121230
      dyz     :     0.205318
      dx2y2   :     0.234518
      dxy     :     0.355084
      f0      :     0.009117  f :     0.151986
      f+1     :     0.008148
      f-1     :     0.011946
      f+2     :     0.024536
      f-2     :     0.017319
      f+3     :     0.056674
      f-3     :     0.024247

  2 N s       :     2.917931  s :     2.917931
      pz      :     1.366205  p :     3.645730
      px      :     1.125280
      py      :     1.154245
      dz2     :     0.018418  d :     0.212026
      dxz     :     0.014282
      dyz     :     0.031585
      dx2y2   :     0.063982
      dxy     :     0.083758
      f0      :     0.001355  f :     0.014996
      f+1     :     0.001591
      f-1     :     0.001942
      f+2     :     0.001615
      f-2     :     0.001370
      f+3     :     0.004518
      f-3     :     0.002605

  3 C s       :     2.729834  s :     2.729834
      pz      :     0.761556  p :     2.682428
      px      :     1.011919
      py      :     0.908954
      dz2     :     0.062153  d :     0.901940
      dxz     :     0.151565
      dyz     :     0.128567
      dx2y2   :     0.317052
      dxy     :     0.242602
      f0      :     0.007975  f :     0.131638
      f+1     :     0.009349
      f-1     :     0.007831
      f+2     :     0.019015
      f-2     :     0.014782
      f+3     :     0.051268
      f-3     :     0.021418

  4 C s       :     2.768373  s :     2.768373
      pz      :     0.973228  p :     3.003690
      px      :     1.029286
      py      :     1.001175
      dz2     :     0.028041  d :     0.341827
      dxz     :     0.051022
      dyz     :     0.018879
      dx2y2   :     0.146564
      dxy     :     0.097321
      f0      :     0.003542  f :     0.041249
      f+1     :     0.004768
      f-1     :     0.003309
      f+2     :     0.002181
      f-2     :     0.005131
      f+3     :     0.013523
      f-3     :     0.008796

  5 C s       :     2.770658  s :     2.770658
      pz      :     0.813954  p :     2.812951
      px      :     1.078433
      py      :     0.920564
      dz2     :     0.036408  d :     0.478946
      dxz     :     0.033210
      dyz     :     0.118788
      dx2y2   :     0.160559
      dxy     :     0.129980
      f0      :     0.005061  f :     0.063428
      f+1     :     0.003650
      f-1     :     0.006522
      f+2     :     0.012499
      f-2     :     0.004865
      f+3     :     0.019393
      f-3     :     0.011438

  6 O s       :     3.400847  s :     3.400847
      pz      :     1.406073  p :     4.486170
      px      :     1.613821
      py      :     1.466277
      dz2     :     0.008164  d :     0.067534
      dxz     :     0.000371
      dyz     :     0.016688
      dx2y2   :     0.025414
      dxy     :     0.016898
      f0      :     0.000539  f :     0.006056
      f+1     :     0.000102
      f-1     :     0.000983
      f+2     :     0.000944
      f-2     :     0.000064
      f+3     :     0.001622
      f-3     :     0.001802

  7 O s       :     3.407690  s :     3.407690
      pz      :     1.365402  p :     4.477854
      px      :     1.508554
      py      :     1.603898
      dz2     :     0.007725  d :     0.066108
      dxz     :     0.012127
      dyz     :     0.003968
      dx2y2   :     0.020188
      dxy     :     0.022101
      f0      :     0.000469  f :     0.005807
      f+1     :     0.000716
      f-1     :     0.000287
      f+2     :     0.000349
      f-2     :     0.000660
      f+3     :     0.001651
      f-3     :     0.001675

  8 C s       :     2.738417  s :     2.738417
      pz      :     0.980176  p :     2.744478
      px      :     0.835452
      py      :     0.928851
      dz2     :     0.118155  d :     0.715898
      dxz     :     0.163710
      dyz     :     0.145294
      dx2y2   :     0.123973
      dxy     :     0.164767
      f0      :     0.013672  f :     0.105653
      f+1     :     0.018326
      f-1     :     0.009776
      f+2     :     0.014694
      f-2     :     0.017451
      f+3     :     0.017093
      f-3     :     0.014641

  9 C s       :     2.774615  s :     2.774615
      pz      :     1.009846  p :     3.033317
      px      :     1.000174
      py      :     1.023298
      dz2     :     0.056770  d :     0.373153
      dxz     :     0.091852
      dyz     :     0.094353
      dx2y2   :     0.069587
      dxy     :     0.060591
      f0      :     0.006074  f :     0.041100
      f+1     :     0.009053
      f-1     :     0.003874
      f+2     :     0.007422
      f-2     :     0.005193
      f+3     :     0.004566
      f-3     :     0.004919

 10 C s       :     2.742849  s :     2.742849
      pz      :     0.977210  p :     2.844818
      px      :     1.004145
      py      :     0.863464
      dz2     :     0.086674  d :     0.659301
      dxz     :     0.145867
      dyz     :     0.163153
      dx2y2   :     0.144996
      dxy     :     0.118611
      f0      :     0.008375  f :     0.089846
      f+1     :     0.007283
      f-1     :     0.018458
      f+2     :     0.013720
      f-2     :     0.012524
      f+3     :     0.016368
      f-3     :     0.013118

 11 C s       :     2.750455  s :     2.750455
      pz      :     0.992886  p :     2.824863
      px      :     0.816949
      py      :     1.015028
      dz2     :     0.075023  d :     0.622253
      dxz     :     0.162301
      dyz     :     0.115761
      dx2y2   :     0.131282
      dxy     :     0.137886
      f0      :     0.007384  f :     0.085206
      f+1     :     0.013270
      f-1     :     0.008615
      f+2     :     0.012884
      f-2     :     0.010171
      f+3     :     0.014329
      f-3     :     0.018553

 12 O s       :     3.357841  s :     3.357841
      pz      :     1.557196  p :     4.570050
      px      :     1.762423
      py      :     1.250431
      dz2     :     0.007925  d :     0.069876
      dxz     :     0.004824
      dyz     :     0.032723
      dx2y2   :     0.014339
      dxy     :     0.010065
      f0      :     0.000297  f :     0.004484
      f+1     :     0.000033
      f-1     :     0.001348
      f+2     :     0.001071
      f-2     :     0.000609
      f+3     :     0.000459
      f-3     :     0.000667

 13 O s       :     3.273489  s :     3.273489
      pz      :     1.577202  p :     4.382341
      px      :     1.232616
      py      :     1.572523
      dz2     :     0.014460  d :     0.100915
      dxz     :     0.028497
      dyz     :     0.010324
      dx2y2   :     0.021779
      dxy     :     0.025855
      f0      :     0.000512  f :     0.006762
      f+1     :     0.001073
      f-1     :     0.000531
      f+2     :     0.001117
      f-2     :     0.001404
      f+3     :     0.001070
      f-3     :     0.001055

 14 C s       :     2.799511  s :     2.799511
      pz      :     0.958632  p :     2.925083
      px      :     1.039974
      py      :     0.926478
      dz2     :     0.099496  d :     0.543800
      dxz     :     0.111726
      dyz     :     0.137109
      dx2y2   :     0.100447
      dxy     :     0.095022
      f0      :     0.009124  f :     0.071672
      f+1     :     0.004080
      f-1     :     0.019316
      f+2     :     0.010201
      f-2     :     0.012748
      f+3     :     0.008216
      f-3     :     0.007987

 15 O s       :     3.319136  s :     3.319136
      pz      :     1.531166  p :     4.536136
      px      :     1.656754
      py      :     1.348216
      dz2     :     0.015356  d :     0.082906
      dxz     :     0.007735
      dyz     :     0.027395
      dx2y2   :     0.017552
      dxy     :     0.014867
      f0      :     0.000547  f :     0.004620
      f+1     :     0.000193
      f-1     :     0.001010
      f+2     :     0.000868
      f-2     :     0.000816
      f+3     :     0.000561
      f-3     :     0.000625

 16 P s       :     4.599902  s :     4.599902
      pz      :     2.719613  p :     8.156286
      px      :     2.745191
      py      :     2.691482
      dz2     :     0.346823  d :     1.813176
      dxz     :     0.428031
      dyz     :     0.321397
      dx2y2   :     0.386240
      dxy     :     0.330685
      f0      :     0.075499  f :     0.512129
      f+1     :     0.080201
      f-1     :     0.053546
      f+2     :     0.087608
      f-2     :     0.073375
      f+3     :     0.060803
      f-3     :     0.081098

 17 O s       :     3.531910  s :     3.531910
      pz      :     1.623477  p :     4.794678
      px      :     1.568009
      py      :     1.603192
      dz2     :     0.004975  d :     0.039174
      dxz     :     0.010776
      dyz     :     0.001086
      dx2y2   :     0.015590
      dxy     :     0.006747
      f0      :     0.000249  f :     0.002205
      f+1     :     0.000364
      f-1     :     0.000019
      f+2     :     0.000461
      f-2     :     0.000127
      f+3     :     0.000636
      f-3     :     0.000348

 18 O s       :     3.536265  s :     3.536265
      pz      :     1.579845  p :     4.769193
      px      :     1.607492
      py      :     1.581856
      dz2     :     0.008537  d :     0.039519
      dxz     :     0.007454
      dyz     :     0.015189
      dx2y2   :     0.003762
      dxy     :     0.004577
      f0      :     0.000275  f :     0.002290
      f+1     :     0.000279
      f-1     :     0.000667
      f+2     :     0.000381
      f-2     :     0.000462
      f+3     :     0.000120
      f-3     :     0.000107

 19 O s       :     3.417991  s :     3.417991
      pz      :     1.334934  p :     4.708811
      px      :     1.649342
      py      :     1.724535
      dz2     :     0.010752  d :     0.046474
      dxz     :     0.021838
      dyz     :     0.005544
      dx2y2   :     0.004640
      dxy     :     0.003700
      f0      :     0.000388  f :     0.002572
      f+1     :     0.001054
      f-1     :     0.000178
      f+2     :     0.000472
      f-2     :     0.000327
      f+3     :     0.000070
      f-3     :     0.000083

 20 H s       :     0.693943  s :     0.693943
      pz      :     0.030055  p :     0.102912
      px      :     0.047402
      py      :     0.025456

 21 H s       :     0.773472  s :     0.773472
      pz      :     0.015492  p :     0.062534
      px      :     0.010074
      py      :     0.036968

 22 H s       :     0.755305  s :     0.755305
      pz      :     0.011180  p :     0.075643
      px      :     0.044190
      py      :     0.020272

 23 H s       :     0.788980  s :     0.788980
      pz      :     0.018257  p :     0.060689
      px      :     0.013414
      py      :     0.029018

 24 H s       :     0.797892  s :     0.797892
      pz      :     0.015617  p :     0.061406
      px      :     0.016621
      py      :     0.029168

 25 H s       :     0.789504  s :     0.789504
      pz      :     0.023136  p :     0.060973
      px      :     0.012940
      py      :     0.024897

 26 H s       :     0.806001  s :     0.806001
      pz      :     0.024036  p :     0.058166
      px      :     0.023590
      py      :     0.010539

 27 H s       :     0.789324  s :     0.789324
      pz      :     0.027636  p :     0.057541
      px      :     0.016464
      py      :     0.013441

 28 H s       :     0.673644  s :     0.673644
      pz      :     0.059055  p :     0.158126
      px      :     0.047078
      py      :     0.051992

 29 H s       :     0.817974  s :     0.817974
      pz      :     0.014514  p :     0.058498
      px      :     0.032224
      py      :     0.011760

 30 H s       :     0.819338  s :     0.819338
      pz      :     0.025685  p :     0.061653
      px      :     0.022581
      py      :     0.013387

 31 H s       :     0.684758  s :     0.684758
      pz      :     0.064720  p :     0.162160
      px      :     0.051745
      py      :     0.045696



                      *****************************
                      * MAYER POPULATION ANALYSIS *
                      *****************************

  NA   - Mulliken gross atomic population
  ZA   - Total nuclear charge
  QA   - Mulliken gross atomic charge
  VA   - Mayer's total valence
  BVA  - Mayer's bonded valence
  FA   - Mayer's free valence

  ATOM       NA         ZA         QA         VA         BVA        FA
  0 N      6.9624     7.0000     0.0376     3.1841     3.1841     0.0000
  1 C      5.7246     6.0000     0.2754     4.4321     4.4321     0.0000
  2 N      7.2154     7.0000    -0.2154     3.1487     3.1487    -0.0000
  3 C      5.7339     6.0000     0.2661     4.3320     4.3320    -0.0000
  4 C      6.3163     6.0000    -0.3163     3.7994     3.7994     0.0000
  5 C      6.0586     6.0000    -0.0586     3.9053     3.9053     0.0000
  6 O      8.4085     8.0000    -0.4085     2.1151     2.1151     0.0000
  7 O      8.3905     8.0000    -0.3905     2.1394     2.1394    -0.0000
  8 C      5.9005     6.0000     0.0995     3.9938     3.9938     0.0000
  9 C      6.3165     6.0000    -0.3165     3.9941     3.9941     0.0000
 10 C      5.9108     6.0000     0.0892     4.0566     4.0566    -0.0000
 11 C      5.8633     6.0000     0.1367     3.8981     3.8981     0.0000
 12 O      8.4389     8.0000    -0.4389     1.9874     1.9874    -0.0000
 13 O      8.2712     8.0000    -0.2712     2.1011     2.1011     0.0000
 14 C      6.0787     6.0000    -0.0787     3.9717     3.9717     0.0000
 15 O      8.3116     8.0000    -0.3116     2.0035     2.0035     0.0000
 16 P     14.2254    15.0000     0.7746     5.9225     5.9225    -0.0000
 17 O      8.6470     8.0000    -0.6470     1.8657     1.8657     0.0000
 18 O      8.6288     8.0000    -0.6288     2.0028     2.0028     0.0000
 19 O      8.5068     8.0000    -0.5068     1.9160     1.9160     0.0000
 20 H      0.7700     1.0000     0.2300     0.9802     0.9802     0.0000
 21 H      0.8464     1.0000     0.1536     0.9843     0.9843     0.0000
 22 H      0.7388     1.0000     0.2612     0.9593     0.9593     0.0000
 23 H      0.8896     1.0000     0.1104     1.0082     1.0082     0.0000
 24 H      0.8743     1.0000     0.1257     0.9811     0.9811    -0.0000
 25 H      0.8849     1.0000     0.1151     0.9888     0.9888    -0.0000
 26 H      0.9180     1.0000     0.0820     0.9767     0.9767    -0.0000
 27 H      0.9144     1.0000     0.0856     0.9904     0.9904     0.0000
 28 H      0.7038     1.0000     0.2962     0.9294     0.9294    -0.0000
 29 H      0.9165     1.0000     0.0835     0.9650     0.9650    -0.0000
 30 H      0.9370     1.0000     0.0630     1.0269     1.0269    -0.0000
 31 H      0.6964     1.0000     0.3036     0.9374     0.9374     0.0000

  Mayer bond orders larger than 0.100000
B(  0-N ,  1-C ) :   1.1322 B(  0-N ,  5-C ) :   1.1481 B(  0-N ,  8-C ) :   0.8895 
B(  1-C ,  2-N ) :   1.1977 B(  1-C ,  6-O ) :   1.9900 B(  2-N ,  3-C ) :   1.0758 
B(  2-N , 20-H ) :   0.8858 B(  3-C ,  4-C ) :   1.1037 B(  3-C ,  7-O ) :   2.0428 
B(  4-C ,  5-C ) :   1.6786 B(  4-C , 21-H ) :   0.9788 B(  5-C , 22-H ) :   0.8543 
B(  8-C ,  9-C ) :   0.9822 B(  8-C , 13-O ) :   1.0913 B(  8-C , 23-H ) :   0.9399 
B(  9-C , 10-C ) :   1.0152 B(  9-C , 24-H ) :   0.9446 B(  9-C , 25-H ) :   0.9422 
B( 10-C , 11-C ) :   0.9204 B( 10-C , 12-O ) :   1.0543 B( 10-C , 26-H ) :   0.9733 
B( 11-C , 13-O ) :   0.9927 B( 11-C , 14-C ) :   0.9683 B( 11-C , 27-H ) :   0.9533 
B( 12-O , 28-H ) :   0.8979 B( 14-C , 15-O ) :   0.9847 B( 14-C , 29-H ) :   0.9489 
B( 14-C , 30-H ) :   0.9396 B( 15-O , 16-P ) :   1.0026 B( 16-P , 17-O ) :   1.7584 
B( 16-P , 18-O ) :   2.0293 B( 16-P , 19-O ) :   1.0401 B( 19-O , 31-H ) :   0.8828 


-------
TIMINGS
-------

Total SCF time: 0 days 0 hours 1 min 19 sec 

Total time                  ....      79.544 sec
Sum of individual times     ....      74.900 sec  ( 94.2%)

SCF preparation             ....       2.274 sec  (  2.9%)
Fock matrix formation       ....      62.461 sec  ( 78.5%)
  Startup                   ....       0.785 sec  (  1.3% of F)
  Split-RI-J                ....       6.195 sec  (  9.9% of F)
  Chain of spheres X        ....      41.232 sec  ( 66.0% of F)
  XC integration            ....      13.555 sec  ( 21.7% of F)
    XC Preparation          ....       0.000 sec  (  0.0% of XC)
    Basis function eval.    ....       0.888 sec  (  6.5% of XC)
    Density eval.           ....       1.282 sec  (  9.5% of XC)
    XC-Functional eval.     ....       0.060 sec  (  0.4% of XC)
    XC-Potential eval.      ....       1.162 sec  (  8.6% of XC)
Diagonalization             ....       0.000 sec  (  0.0%)
Density matrix formation    ....       2.311 sec  (  2.9%)
Total Energy calculation    ....       0.795 sec  (  1.0%)
Population analysis         ....       0.462 sec  (  0.6%)
Orbital Transformation      ....       0.681 sec  (  0.9%)
Orbital Orthonormalization  ....       0.000 sec  (  0.0%)
DIIS solution               ....       3.461 sec  (  4.4%)
SOSCF solution              ....       2.455 sec  (  3.1%)
Finished LeanSCF after  79.8 sec

Maximum memory used throughout the entire LEANSCF-calculation: 87.8 MB


-------------------------------------------------------------------------------
                          DFT DISPERSION CORRECTION                            
                                                                               
                              DFTD3 V3.1  Rev 1                                
                          USING Becke-Johnson damping                          
-------------------------------------------------------------------------------
The PBE0 functional is recognized
Active option DFTDOPT                   ...         4   

molecular C6(AA) [au] = 11899.788312 


            DFT-D V3
 parameters
 s6 scaling factor         :     1.0000 
 a1 scaling factor         :     0.4145 
 s8 scaling factor         :     1.2177 
 a2 scaling factor         :     4.8593 
 ad hoc parameters k1-k3   :    16.0000     1.3333    -4.0000 

 Edisp/kcal,au: -22.700801435189  -0.036176025944 
 E6   /kcal   : -14.385489607 
 E8   /kcal   :  -8.315311828 
 % E8         :  36.630036396 

-------------------------   ----------------
Dispersion correction           -0.036176026
-------------------------   ----------------


-------------------------   --------------------
FINAL SINGLE POINT ENERGY     -1402.268428429255
-------------------------   --------------------



           ************************************************************
           *        Program running with 10 parallel MPI-processes    *
           *              working on a common directory               *
           ************************************************************

------------------------------------------------------------------------------
                              ORCA PROPERTY CALCULATIONS
------------------------------------------------------------------------------

GBWName                                 ... ump_esp.gbw
Number of atoms                         ...     32
Number of basis functions               ...    698
Max core memory                         ...   2000 MB

Electric properties:
Dipole moment                           ... YES
Quadrupole moment                       ...  NO
Static polarizability (Dipole/Dipole)   ...  NO
Static polarizability (Dipole/Quad.)    ...  NO
Static polarizability (Quad./Quad.)     ...  NO
Static polarizability (Velocity)        ...  NO
Static hyperpolarizability              ...  NO

Atomic electric properties:
Dipole moment                           ...  NO
Quadrupole moment                       ...  NO
Static polarizability                   ...  NO

Choice of electric origin               ... Center of mass
Position of electric origin             ...    15.871777    38.830304    22.960058

General magnetic properties:
Magnetizability                         ...  NO

EPR properties:
g-Tensor (aka g-matrix)                 ...  NO
Zero-Field splitting spin-orbit         ...  NO
Zero-field splitting spin-spin          ...  NO
Hyperfine couplings                     ...  NO (   0 nuclei)
Quadrupole couplings                    ...  NO (   0 nuclei)
Contact density                         ...  NO (   0 nuclei)

NMR properties:
Chemical shifts                         ...  NO (   0 nuclei)
Spin-rotation constants                 ...  NO (   0 nuclei)
Spin-spin couplings                     ...  NO (   0 nuclei,    0 pairs)

Choice of magnetic origin               ... GIAO
Position of magnetic origin             ...     0.000000     0.000000     0.000000

Properties with geometric perturbations:
SCF Hessian                             ...  NO
IR spectrum                             ...  NO
VCD spectrum                            ...  NO
X-ray spectroscopy properties:
SCF XES/XAS/RIXS spectra                ...  NO

SCF SOC stabilization energy            ...  NO
Diagonal Born-Oppenheimer correction    ...  NO

-------------
DIPOLE MOMENT
-------------

Method             : SCF
Type of density    : Electron Density
Multiplicity       :   1
Irrep              :   0
Energy             : -1402.2322524033115769 Eh
Basis              : AO
                                X                 Y                 Z
Electronic contribution:     -4.935604216       7.819718909       4.404883998
Nuclear contribution   :      4.310887677     -12.779982769      -6.984270975
                        -----------------------------------------
Total Dipole Moment    :     -0.624716538      -4.960263860      -2.579386977
                        -----------------------------------------
Magnitude (a.u.)       :      5.625631120
Magnitude (Debye)      :     14.299217929



--------------------
Rotational spectrum 
--------------------
 
Rotational constants in cm-1:             0.013682             0.007313             0.005067 
Rotational constants in MHz :           410.183949           219.228670           151.897020 

Dipole components along the rotational axes: 
x,y,z [a.u.] :    -3.093288     4.094546    -2.305210 
x,y,z [Debye]:    -7.862512    10.407508    -5.859377 

 

Dipole moment calculation done in   0.2 sec 

Maximum memory used throughout the entire PROP-calculation: 54.2 MB

--------------------------------
SUGGESTED CITATIONS FOR THIS RUN
--------------------------------

Below you find a list of papers that are relevant to this ORCA run
We neither can nor want to force you to cite these papers, but we appreciate if you do
You receive ORCA, which is the product of decades of hard work by many enthusiastic individuals, for free
The only thing we kindly ask in return is that you cite our papers,
We deeply appreciate it, if you show your appreciation for ORCA by not just citing the generic ORCA reference.

Please note that relegating all ORCA citations to the supporting information does *not* help us.
SI sections are not indexed - citations you put there will not count into any citation statistics
But we need these citations in order to attract the funding resources that allow us to do what we are doing

Therefore, if you are a happy ORCA user, please consider citing a few of the papers listed below in the main body of your paper

In addition to the list printed below, the program has created the file ump_esp.bibtex that contains the list in bibtex format
You can import this file easily into all common literature databanks and citation aid programs


List of essential papers. We consider these as the minimum necessary citations

  1. Neese, F.
     Software update: the ORCA program system, version 6.0
     WIRES Comput. Molec. Sci. 2025 15(1), e70019
     doi.org/10.1002/wcms.7019

List of papers to cite with high priority. The work reported in these papers was absolutely
necessary for this run to complete.
Our perspective: the developers of density functionals and basis sets usually get cited in chemistry papers
Good! But without the algorithms to do something with them, the functionals or basis sets would not do anything.
Hence, in our opinion, the algorithm design and method developments papers are equally worthy of getting cited

  1. Neese, F.
     An improvement of the resolution of the identity approximation for the formation of the Coulomb matrix
     J. Comp. Chem. 2003 24(14), 1740-1747
     doi.org/10.1002/jcc.10318
  2. Neese, F.; Wennmohs, F.; Hansen, A.; Becker, U.
     Efficient, approximate and parallel Hartree-Fock and hybrid DFT calculations. A 'chain-of-spheres' algorithm for the Hartree-Fock exchange
     Chem. Phys. 2009 356(1-3), 98-109
     doi.org/10.1016/j.chemphys.2008.10.036
  3. Grimme, S.; Antony, J.; Ehrlich, S.; Krieg, H.
     A consistent and accurate ab initio parametrization of density functional dispersion correction (DFT-D) for the 94 elements H-Pu
     J. Chem. Phys. 2010 132 , 154104
     doi.org/10.1063/1.3382344
  4. Grimme, S.; Ehrlich, S.; Goerigk, L.
     Effect of the damping function in dispersion corrected density functional theory
     J. Comput. Chem. 2011 32(7), 1456-1465
     doi.org/10.1002/jcc.21759
  5. Helmich-Paris, B.; de Souza, B.; Neese, F.; Izsák, R.
     An improved chain of spheres for exchange algorithm
     J. Chem. Phys. 2021 155(10), 104109
     doi.org/10.1063/5.0058766
  6. Neese, F.
     The SHARK Integral Generation and Digestion System
     J. Comp. Chem. 2022 44(3), 381
     doi.org/10.1002/jcc.26942

List of suggested additional citations. These are papers that are important in the 'surrounding' of 
of this run, or papers that preceded the highly important papers. If you like your results we are grateful for a citation.

  1. Izsak, R.; Neese, F.
     An overlap fitted chain of spheres exchange method
     J. Chem. Phys. 2011 135 , 144105
     doi.org/10.1063/1.3646921
  2. Izsak, R.; Hansen, A.; Neese, F.
     The resolution of identity and chain of spheres approximations for the LPNO-CCSD singles Fock term
     Molec. Phys. 2012 110 , 2413-2417
     doi.org/10.1080/00268976.2012.687466
  3. Neese, F.
     The ORCA program system
     WIRES Comput. Molec. Sci. 2012 2(1), 73-78
     doi.org/10.1002/wcms.81
  4. Izsak, R.; Neese, F.; Klopper, W.
     Robust fitting techniques in the chain of spheres approximation to the Fock exchange: The role of the complementary space
     J. Chem. Phys. 2013 139 , 
     doi.org/10.1063/1.4819264
  5. Neese, F.
     Software update: the ORCA program system, version 4.0
     WIRES Comput. Molec. Sci. 2018 8(1), 1-6
     doi.org/10.1002/wcms.1327
  6. Neese, F.; Wennmohs, F.; Becker, U.; Riplinger, C.
     The ORCA quantum chemistry program package
     J. Chem. Phys. 2020 152(22), 224108
     doi.org/10.1063/5.0004608
  7. Neese, F.
     Software update: The ORCA program system—Version 5.0
     WIRES Comput. Molec. Sci. 2022 12(1), e1606
     doi.org/10.1002/wcms.1606

List of optional additional citations

  1. Neese, F.
     Approximate second-order SCF convergence for spin unrestricted wavefunctions
     Chem. Phys. Lett. 2000 325(1-3), 93-98
     doi.org/10.1016/s0009-2614(00)00662-x

Timings for individual modules:

Sum of individual times          ...       89.285 sec (=   1.488 min)
Startup calculation              ...        4.823 sec (=   0.080 min)   5.4 %
SCF iterations                   ...       82.955 sec (=   1.383 min)  92.9 %
Property calculations            ...        1.507 sec (=   0.025 min)   1.7 %
                             ****ORCA TERMINATED NORMALLY****
TOTAL RUN TIME: 0 days 0 hours 1 minutes 30 seconds 991 msec
